----- GAMESS execution script 'rungms' -----
This job is running on host armilia
under operating system Linux at Tue Jan 28 02:27:49 PM CET 2025
Available scratch disk space (Kbyte units) at beginning of the job is
Filesystem                   1K-blocks   Used Available Use% Mounted on
/dev/mapper/vg--ctom-scratch 216359712 269504 216090208   1% /scratch
GAMESS temporary binary files will be written to /scratch/barrois.272350
GAMESS supplementary output files will be written to /home/barrois/VB/anthracene
Copying input file anthracene_HF_MC.inp to your run's scratch directory...

 Distributed Data Interface kickoff program.
 Initiating 1 compute processes on 1 nodes to run the following command:
 /share/programs/GAMESS/gamess.00.x anthracene_HF_MC 

          ******************************************************
          *         GAMESS VERSION =  1 MAY 2013 (R1)          *
          *             FROM IOWA STATE UNIVERSITY             *
          * M.W.SCHMIDT, K.K.BALDRIDGE, J.A.BOATZ, S.T.ELBERT, *
          *   M.S.GORDON, J.H.JENSEN, S.KOSEKI, N.MATSUNAGA,   *
          *          K.A.NGUYEN, S.J.SU, T.L.WINDUS,           *
          *       TOGETHER WITH M.DUPUIS, J.A.MONTGOMERY       *
          *         J.COMPUT.CHEM.  14, 1347-1363(1993)        *
          **************** 64 BIT LINUX VERSION ****************

  SINCE 1993, STUDENTS AND POSTDOCS WORKING AT IOWA STATE UNIVERSITY
  AND ALSO IN THEIR VARIOUS JOBS AFTER LEAVING ISU HAVE MADE IMPORTANT
  CONTRIBUTIONS TO THE CODE:
     IVANA ADAMOVIC, CHRISTINE AIKENS, YURI ALEXEEV, POOJA ARORA,
     ANDREY ASADCHEV, ROB BELL, PRADIPTA BANDYOPADHYAY, JONATHAN BENTZ,
     BRETT BODE, GALINA CHABAN, WEI CHEN, CHEOL HO CHOI, PAUL DAY,
     ALBERT DEFUSCO, TIM DUDLEY, DMITRI FEDOROV, GRAHAM FLETCHER,
     MARK FREITAG, KURT GLAESEMANN, DAN KEMP, GRANT MERRILL,
     NORIYUKI MINEZAWA, JONATHAN MULLIN, TAKESHI NAGATA,
     SEAN NEDD, HEATHER NETZLOFF, BOSILJKA NJEGIC, RYAN OLSON, MIKE PAK,
     JIM SHOEMAKER, LYUDMILA SLIPCHENKO, SAROM SOK, JIE SONG,
     TETSUYA TAKETSUGU, SIMON WEBB, SOOHAENG YOO, FEDERICO ZAHARIEV

  ADDITIONAL CODE HAS BEEN PROVIDED BY COLLABORATORS IN OTHER GROUPS:
     IOWA STATE UNIVERSITY:
          JOE IVANIC, LAIMUTIS BYTAUTAS, KLAUS RUEDENBERG
     UNIVERSITY OF TOKYO: KIMIHIKO HIRAO, TAKAHITO NAKAJIMA,
          TAKAO TSUNEDA, MUNEAKI KAMIYA, SUSUMU YANAGISAWA,
          KIYOSHI YAGI, MAHITO CHIBA, SEIKEN TOKURA, NAOAKI KAWAKAMI
     UNIVERSITY OF AARHUS: FRANK JENSEN
     UNIVERSITY OF IOWA: VISVALDAS KAIRYS, HUI LI
     NATIONAL INST. OF STANDARDS AND TECHNOLOGY: WALT STEVENS, DAVID GARMER
     UNIVERSITY OF PISA: BENEDETTA MENNUCCI, JACOPO TOMASI
     UNIVERSITY OF MEMPHIS: HENRY KURTZ, PRAKASHAN KORAMBATH
     UNIVERSITY OF ALBERTA: TOBY ZENG, MARIUSZ KLOBUKOWSKI
     UNIVERSITY OF NEW ENGLAND: MARK SPACKMAN
     MIE UNIVERSITY: HIROAKI UMEDA
     MICHIGAN STATE UNIVERSITY:
          KAROL KOWALSKI, MARTA WLOCH, JEFFREY GOUR, JESSE LUTZ,
          WEI LI, PIOTR PIECUCH
     UNIVERSITY OF SILESIA: MONIKA MUSIAL, STANISLAW KUCHARSKI
     FACULTES UNIVERSITAIRES NOTRE-DAME DE LA PAIX:
          OLIVIER QUINET, BENOIT CHAMPAGNE
     UNIVERSITY OF CALIFORNIA - SANTA BARBARA: BERNARD KIRTMAN
     INSTITUTE FOR MOLECULAR SCIENCE:
          KAZUYA ISHIMURA, MICHIO KATOUDA, AND SHIGERU NAGASE
     UNIVERSITY OF NOTRE DAME: DAN CHIPMAN
     KYUSHU UNIVERSITY:
          HARUYUKI NAKANO,
          FENG LONG GU, JACEK KORCHOWIEC, MARCIN MAKOWSKI, AND YURIKO AOKI,
          HIROTOSHI MORI AND EISAKU MIYOSHI
     PENNSYLVANIA STATE UNIVERSITY:
          TZVETELIN IORDANOV, CHET SWALINA, JONATHAN SKONE,
          SHARON HAMMES-SCHIFFER
     WASEDA UNIVERSITY:
          MASATO KOBAYASHI, TOMOKO AKAMA, TSUGUKI TOUMA,
          TAKESHI YOSHIKAWA, YASUHIRO IKABATA, HIROMI NAKAI
     NANJING UNIVERSITY: SHUHUA LI
     UNIVERSITY OF NEBRASKA:
          PEIFENG SU, DEJUN SI, NANDUN THELLAMUREGE, YALI WANG, HUI LI
     UNIVERSITY OF ZURICH:
          ROBERTO PEVERATI, KIM BALDRIDGE
     N. COPERNICUS UNIVERSITY AND JACKSON STATE UNIVERSITY:
          MARIA BARYSZ

 EXECUTION OF GAMESS BEGUN Tue Jan 28 14:27:49 2025

            ECHO OF THE FIRST FEW INPUT CARDS -
 INPUT CARD>!! filename=anthracene                                                          
 INPUT CARD>!                                                                               
 INPUT CARD>!   GAMESS Calculation input file                                               
 INPUT CARD>!                                                                               
 INPUT CARD>!                                                                               
 INPUT CARD> $CONTRL SCFTYP=MCSCF RUNTYP=ENERGY COORD=UNIQUE  MAXIT=30 MULT=1 $END          
 INPUT CARD> $SYSTEM TIMLIM=525600 MEMORY=2185666 $END                                      
 INPUT CARD> $MCSCF CISTEP=GUGA MAXIT=200 QUAD=.F. $END                                     
 INPUT CARD> $DRT    GROUP=C1  FORS=.TRUE. NMCC=40 NDOC=7 NVAL=0 $END                       
 INPUT CARD> $GUGDIA NSTATE=1 PRTTOL=0.01 $END                                              
 INPUT CARD> $GUGDM2 WSTATE(1)=1.0 $END                                                     
 INPUT CARD>                                                                                
 INPUT CARD> $BASIS  GBASIS=N31 NGAUSS=6                                                    
 INPUT CARD>         NDFUNC=1   NPFUNC=0  $END                                              
 INPUT CARD>                                                                                
 INPUT CARD> $SCF    DIRSCF=.TRUE. $END                                                     
 INPUT CARD> $GUESS  GUESS=MOREAD                                                           
 INPUT CARD>   NORB=47                                                                      
 INPUT CARD> $END                                                                           
 INPUT CARD>                                                                                
 INPUT CARD> $DATA                                                                          
 INPUT CARD>                                                                                
 INPUT CARD>  C1                                                                            
 INPUT CARD>  C  6.0  0.00000    1.40119    -0.00000                                        
 INPUT CARD>  C  6.0  0.00000   -1.40119     0.00000                                        
 INPUT CARD>  C  6.0  2.47682   -1.40470     0.00000                                        
 INPUT CARD>  C  6.0 -2.47682    1.40470    -0.00000                                        
 INPUT CARD>  C  6.0  2.47682    1.40470    -0.00000                                        
 INPUT CARD>  C  6.0 -2.47682   -1.40470    -0.00000                                        
 INPUT CARD>  C  6.0 -1.22202    0.72155    -0.00000                                        
 INPUT CARD>  C  6.0  1.22202   -0.72155     0.00000                                        
 INPUT CARD>  C  6.0  3.65503   -0.71227     0.00000                                        
 INPUT CARD>  C  6.0 -3.65503    0.71227    -0.00000                                        
 INPUT CARD>  C  6.0  3.65503    0.71227    -0.00000                                        
 INPUT CARD>  C  6.0 -3.65503   -0.71227    -0.00000                                        
 INPUT CARD>  C  6.0  1.22202    0.72155     0.00000                                        
 INPUT CARD>  C  6.0 -1.22202   -0.72155     0.00000                                        
 INPUT CARD>  H  1.0  2.47711    2.49085    -0.00000                                        
 INPUT CARD>  H  1.0 -2.47711   -2.49085    -0.00000                                        
 INPUT CARD>  H  1.0  0.00000    2.48817    -0.00000                                        
 INPUT CARD>  H  1.0  0.00000   -2.48817     0.00000                                        
 INPUT CARD>  H  1.0  2.47711   -2.49085     0.00000                                        
 INPUT CARD>  H  1.0 -2.47711    2.49085    -0.00000                                        
 INPUT CARD>  H  1.0  4.60051   -1.24509     0.00000                                        
 INPUT CARD>  H  1.0 -4.60051    1.24509    -0.00000                                        
 INPUT CARD>  H  1.0  4.60051    1.24509    -0.00000                                        
 INPUT CARD>  H  1.0 -4.60051   -1.24509    -0.00000                                        
 INPUT CARD> $END                                                                           
 INPUT CARD> $VEC                                                                           
 INPUT CARD> 1  1 7.80784056E-02 1.95725351E-03-0.00000000E+00 1.26514082E-04-0.00000000E+00
    2185666 WORDS OF MEMORY AVAILABLE

     BASIS OPTIONS
     -------------
     GBASIS=N31          IGAUSS=       6      POLAR=POPN31  
     NDFUNC=       1     NFFUNC=       0     DIFFSP=       F
     NPFUNC=       0      DIFFS=       F     BASNAM=        


     RUN TITLE
     ---------
                                                                                 

 THE POINT GROUP OF THE MOLECULE IS C1      
 THE ORDER OF THE PRINCIPAL AXIS IS     0

 ATOM      ATOMIC                      COORDINATES (BOHR)
           CHARGE         X                   Y                   Z
 C           6.0     0.0000000000        2.6478651567       -0.0000000000
 C           6.0     0.0000000000       -2.6478651567        0.0000000000
 C           6.0     4.6805111209       -2.6544980950        0.0000000000
 C           6.0    -4.6805111209        2.6544980950       -0.0000000000
 C           6.0     4.6805111209        2.6544980950       -0.0000000000
 C           6.0    -4.6805111209       -2.6544980950       -0.0000000000
 C           6.0    -2.3092829515        1.3635317864       -0.0000000000
 C           6.0     2.3092829515       -1.3635317864        0.0000000000
 C           6.0     6.9070051769       -1.3459951293        0.0000000000
 C           6.0    -6.9070051769        1.3459951293       -0.0000000000
 C           6.0     6.9070051769        1.3459951293       -0.0000000000
 C           6.0    -6.9070051769       -1.3459951293       -0.0000000000
 C           6.0     2.3092829515        1.3635317864        0.0000000000
 C           6.0    -2.3092829515       -1.3635317864        0.0000000000
 H           1.0     4.6810591414        4.7070239765       -0.0000000000
 H           1.0    -4.6810591414       -4.7070239765       -0.0000000000
 H           1.0     0.0000000000        4.7019595109       -0.0000000000
 H           1.0     0.0000000000       -4.7019595109        0.0000000000
 H           1.0     4.6810591414       -4.7070239765        0.0000000000
 H           1.0    -4.6810591414        4.7070239765       -0.0000000000
 H           1.0     8.6937033038       -2.3528789301        0.0000000000
 H           1.0    -8.6937033038        2.3528789301       -0.0000000000
 H           1.0     8.6937033038        2.3528789301       -0.0000000000
 H           1.0    -8.6937033038       -2.3528789301       -0.0000000000

          INTERNUCLEAR DISTANCES (ANGS.)
          ------------------------------

                1 C          2 C          3 C          4 C          5 C     

   1 C       0.0000000    2.8023800 *  3.7426803    2.4768225 *  2.4768225 *
   2 C       2.8023800 *  0.0000000    2.4768225 *  3.7426803    3.7426803  
   3 C       3.7426803    2.4768225 *  0.0000000    5.6948466    2.8094000 *
   4 C       2.4768225 *  3.7426803    5.6948466    0.0000000    4.9536400  
   5 C       2.4768225 *  3.7426803    2.8094000 *  4.9536400    0.0000000  
   6 C       3.7426803    2.4768225 *  4.9536400    2.8094000 *  5.6948466  
   7 C       1.3983002 *  2.4493587 *  4.2664220    1.4287116 *  3.7613975  
   8 C       2.4493587 *  1.3983002 *  1.4287116 *  4.2664220    2.4688990 *
   9 C       4.2220798    3.7193891    1.3666156 *  6.4869983    2.4227548 *
  10 C       3.7193891    4.2220798    6.4869983    1.3666156 *  6.1708220  
  11 C       3.7193891    4.2220798    2.4227548 *  6.1708220    1.3666156 *
  12 C       4.2220798    3.7193891    6.1708220    2.4227548 *  6.4869983  
  13 C       1.3983002 *  2.4493587 *  2.4688990 *  3.7613975    1.4287116 *
  14 C       2.4493587 *  1.3983002 *  3.7613975    2.4688990 *  4.2664220  
  15 H       2.7061842 *  4.6134639    3.8955500    5.0716017    1.0861500 *
  16 H       4.6134639    2.7061842 *  5.0716017    3.8955500    6.3021212  
  17 H       1.0869800 *  3.8893600    4.6140085    2.7034320 *  2.7034320 *
  18 H       3.8893600    1.0869800 *  2.7034320 *  4.6140085    4.6140085  
  19 H       4.6134639    2.7061842 *  1.0861500 *  6.3021212    3.8955500  
  20 H       2.7061842 *  4.6134639    6.3021212    1.0861500 *  5.0716017  
  21 H       5.3073054    4.6031576    2.1296795 *  7.5571150    3.3957983  
  22 H       4.6031576    5.3073054    7.5571150    2.1296795 *  7.0791296  
  23 H       4.6031576    5.3073054    3.3957983    7.0791296    2.1296795 *
  24 H       5.3073054    4.6031576    7.0791296    3.3957983    7.5571150  

                6 C          7 C          8 C          9 C         10 C     

   1 C       3.7426803    1.3983002 *  2.4493587 *  4.2220798    3.7193891  
   2 C       2.4768225 *  2.4493587 *  1.3983002 *  3.7193891    4.2220798  
   3 C       4.9536400    4.2664220    1.4287116 *  1.3666156 *  6.4869983  
   4 C       2.8094000 *  1.4287116 *  4.2664220    6.4869983    1.3666156 *
   5 C       5.6948466    3.7613975    2.4688990 *  2.4227548 *  6.1708220  
   6 C       0.0000000    2.4688990 *  3.7613975    6.1708220    2.4227548 *
   7 C       2.4688990 *  0.0000000    2.8382863 *  5.0834493    2.4330277 *
   8 C       3.7613975    2.8382863 *  0.0000000    2.4330277 *  5.0834493  
   9 C       6.1708220    5.0834493    2.4330277 *  0.0000000    7.4475695  
  10 C       2.4227548 *  2.4330277 *  5.0834493    7.4475695    0.0000000  
  11 C       6.4869983    4.8770588    2.8240711 *  1.4245400 *  7.3100600  
  12 C       1.3666156 *  2.8240711 *  4.8770588    7.3100600    1.4245400 *
  13 C       4.2664220    2.4440400 *  1.4431000 *  2.8240711 *  4.8770588  
  14 C       1.4287116 *  1.4431000 *  2.4440400 *  4.8770588    2.8240711 *
  15 H       6.3021212    4.1004860    3.4488788    3.4128395    6.3848640  
  16 H       1.0861500 *  3.4488788    4.1004860    6.3848640    3.4128395  
  17 H       4.6140085    2.1480873 *  3.4344775    4.8581952    4.0636271  
  18 H       2.7034320 *  3.4344775    2.1480873 *  4.0636271    4.8581952  
  19 H       5.0716017    4.8992935    2.1692564 *  2.1332703 *  6.9183176  
  20 H       3.8955500    2.1692564 *  4.8992935    6.9183176    2.1332703 *
  21 H       7.0791296    6.1456919    3.4188139    1.0852786 *  8.4844092  
  22 H       3.3957983    3.4188139    6.1456919    8.4844092    1.0852786 *
  23 H       7.5571150    5.8460200    3.9092029    2.1737504 *  8.2727165  
  24 H       2.1296795 *  3.9092029    5.8460200    8.2727165    2.1737504 *

               11 C         12 C         13 C         14 C         15 H     

   1 C       3.7193891    4.2220798    1.3983002 *  2.4493587 *  2.7061842 *
   2 C       4.2220798    3.7193891    2.4493587 *  1.3983002 *  4.6134639  
   3 C       2.4227548 *  6.1708220    2.4688990 *  3.7613975    3.8955500  
   4 C       6.1708220    2.4227548 *  3.7613975    2.4688990 *  5.0716017  
   5 C       1.3666156 *  6.4869983    1.4287116 *  4.2664220    1.0861500 *
   6 C       6.4869983    1.3666156 *  4.2664220    1.4287116 *  6.3021212  
   7 C       4.8770588    2.8240711 *  2.4440400 *  1.4431000 *  4.1004860  
   8 C       2.8240711 *  4.8770588    1.4431000 *  2.4440400 *  3.4488788  
   9 C       1.4245400 *  7.3100600    2.8240711 *  4.8770588    3.4128395  
  10 C       7.3100600    1.4245400 *  4.8770588    2.8240711 *  6.3848640  
  11 C       0.0000000    7.4475695    2.4330277 *  5.0834493    2.1332703 *
  12 C       7.4475695    0.0000000    5.0834493    2.4330277 *  6.9183176  
  13 C       2.4330277 *  5.0834493    0.0000000    2.8382863 *  2.1692564 *
  14 C       5.0834493    2.4330277 *  2.8382863 *  0.0000000    4.8992935  
  15 H       2.1332703 *  6.9183176    2.1692564 *  4.8992935    0.0000000  
  16 H       6.9183176    2.1332703 *  4.8992935    2.1692564 *  7.0257833  
  17 H       4.0636271    4.8581952    2.1480873 *  3.4344775    2.4771114 *
  18 H       4.8581952    4.0636271    3.4344775    2.1480873 *  5.5611792  
  19 H       3.4128395    6.3848640    3.4488788    4.1004860    4.9817000  
  20 H       6.3848640    3.4128395    4.1004860    3.4488788    4.9542200  
  21 H       2.1737504 *  8.2727165    3.9092029    5.8460200    4.2972172  
  22 H       8.2727165    2.1737504 *  5.8460200    3.9092029    7.1864193  
  23 H       1.0852786 *  8.4844092    3.4188139    6.1456919    2.4618581 *
  24 H       8.4844092    1.0852786 *  6.1456919    3.4188139    8.0031214  

               16 H         17 H         18 H         19 H         20 H     

   1 C       4.6134639    1.0869800 *  3.8893600    4.6134639    2.7061842 *
   2 C       2.7061842 *  3.8893600    1.0869800 *  2.7061842 *  4.6134639  
   3 C       5.0716017    4.6140085    2.7034320 *  1.0861500 *  6.3021212  
   4 C       3.8955500    2.7034320 *  4.6140085    6.3021212    1.0861500 *
   5 C       6.3021212    2.7034320 *  4.6140085    3.8955500    5.0716017  
   6 C       1.0861500 *  4.6140085    2.7034320 *  5.0716017    3.8955500  
   7 C       3.4488788    2.1480873 *  3.4344775    4.8992935    2.1692564 *
   8 C       4.1004860    3.4344775    2.1480873 *  2.1692564 *  4.8992935  
   9 C       6.3848640    4.8581952    4.0636271    2.1332703 *  6.9183176  
  10 C       3.4128395    4.0636271    4.8581952    6.9183176    2.1332703 *
  11 C       6.9183176    4.0636271    4.8581952    3.4128395    6.3848640  
  12 C       2.1332703 *  4.8581952    4.0636271    6.3848640    3.4128395  
  13 C       4.8992935    2.1480873 *  3.4344775    3.4488788    4.1004860  
  14 C       2.1692564 *  3.4344775    2.1480873 *  4.1004860    3.4488788  
  15 H       7.0257833    2.4771114 *  5.5611792    4.9817000    4.9542200  
  16 H       0.0000000    5.5611792    2.4771114 *  4.9542200    4.9817000  
  17 H       5.5611792    0.0000000    4.9763400    5.5611792    2.4771114 *
  18 H       2.4771114 *  4.9763400    0.0000000    2.4771114 *  5.5611792  
  19 H       4.9542200    5.5611792    2.4771114 *  0.0000000    7.0257833  
  20 H       4.9817000    2.4771114 *  5.5611792    7.0257833    0.0000000  
  21 H       7.1864193    5.9246875    4.7654947    2.4618581 *  8.0031214  
  22 H       4.2972172    4.7654947    5.9246875    8.0031214    2.4618581 *
  23 H       8.0031214    4.7654947    5.9246875    4.2972172    7.1864193  
  24 H       2.4618581 *  5.9246875    4.7654947    7.1864193    4.2972172  

               21 H         22 H         23 H         24 H     

   1 C       5.3073054    4.6031576    4.6031576    5.3073054  
   2 C       4.6031576    5.3073054    5.3073054    4.6031576  
   3 C       2.1296795 *  7.5571150    3.3957983    7.0791296  
   4 C       7.5571150    2.1296795 *  7.0791296    3.3957983  
   5 C       3.3957983    7.0791296    2.1296795 *  7.5571150  
   6 C       7.0791296    3.3957983    7.5571150    2.1296795 *
   7 C       6.1456919    3.4188139    5.8460200    3.9092029  
   8 C       3.4188139    6.1456919    3.9092029    5.8460200  
   9 C       1.0852786 *  8.4844092    2.1737504 *  8.2727165  
  10 C       8.4844092    1.0852786 *  8.2727165    2.1737504 *
  11 C       2.1737504 *  8.2727165    1.0852786 *  8.4844092  
  12 C       8.2727165    2.1737504 *  8.4844092    1.0852786 *
  13 C       3.9092029    5.8460200    3.4188139    6.1456919  
  14 C       5.8460200    3.9092029    6.1456919    3.4188139  
  15 H       4.2972172    7.1864193    2.4618581 *  8.0031214  
  16 H       7.1864193    4.2972172    8.0031214    2.4618581 *
  17 H       5.9246875    4.7654947    4.7654947    5.9246875  
  18 H       4.7654947    5.9246875    5.9246875    4.7654947  
  19 H       2.4618581 *  8.0031214    4.2972172    7.1864193  
  20 H       8.0031214    2.4618581 *  7.1864193    4.2972172  
  21 H       0.0000000    9.5320389    2.4901800 *  9.2010200  
  22 H       9.5320389    0.0000000    9.2010200    2.4901800 *
  23 H       2.4901800 *  9.2010200    0.0000000    9.5320389  
  24 H       9.2010200    2.4901800 *  9.5320389    0.0000000  

  * ... LESS THAN  3.000


     ATOMIC BASIS SET
     ----------------
 THE CONTRACTED PRIMITIVE FUNCTIONS HAVE BEEN UNNORMALIZED
 THE CONTRACTED BASIS FUNCTIONS ARE NOW NORMALIZED TO UNITY

  SHELL TYPE  PRIMITIVE        EXPONENT          CONTRACTION COEFFICIENT(S)

 C         

      1   S       1          3047.5248800    0.001834737132
      1   S       2           457.3695180    0.014037322813
      1   S       3           103.9486850    0.068842622264
      1   S       4            29.2101553    0.232184443216
      1   S       5             9.2866630    0.467941348435
      1   S       6             3.1639270    0.362311985337

      2   L       7             7.8682723   -0.119332419775    0.068999066591
      2   L       8             1.8812885   -0.160854151696    0.316423960957
      2   L       9             0.5442493    1.143456437840    0.744308290898

      3   L      10             0.1687145    1.000000000000    1.000000000000

      4   D      11             0.8000000    1.000000000000

 C         

      5   S      12          3047.5248800    0.001834737132
      5   S      13           457.3695180    0.014037322813
      5   S      14           103.9486850    0.068842622264
      5   S      15            29.2101553    0.232184443216
      5   S      16             9.2866630    0.467941348435
      5   S      17             3.1639270    0.362311985337

      6   L      18             7.8682723   -0.119332419775    0.068999066591
      6   L      19             1.8812885   -0.160854151696    0.316423960957
      6   L      20             0.5442493    1.143456437840    0.744308290898

      7   L      21             0.1687145    1.000000000000    1.000000000000

      8   D      22             0.8000000    1.000000000000

 C         

      9   S      23          3047.5248800    0.001834737132
      9   S      24           457.3695180    0.014037322813
      9   S      25           103.9486850    0.068842622264
      9   S      26            29.2101553    0.232184443216
      9   S      27             9.2866630    0.467941348435
      9   S      28             3.1639270    0.362311985337

     10   L      29             7.8682723   -0.119332419775    0.068999066591
     10   L      30             1.8812885   -0.160854151696    0.316423960957
     10   L      31             0.5442493    1.143456437840    0.744308290898

     11   L      32             0.1687145    1.000000000000    1.000000000000

     12   D      33             0.8000000    1.000000000000

 C         

     13   S      34          3047.5248800    0.001834737132
     13   S      35           457.3695180    0.014037322813
     13   S      36           103.9486850    0.068842622264
     13   S      37            29.2101553    0.232184443216
     13   S      38             9.2866630    0.467941348435
     13   S      39             3.1639270    0.362311985337

     14   L      40             7.8682723   -0.119332419775    0.068999066591
     14   L      41             1.8812885   -0.160854151696    0.316423960957
     14   L      42             0.5442493    1.143456437840    0.744308290898

     15   L      43             0.1687145    1.000000000000    1.000000000000

     16   D      44             0.8000000    1.000000000000

 C         

     17   S      45          3047.5248800    0.001834737132
     17   S      46           457.3695180    0.014037322813
     17   S      47           103.9486850    0.068842622264
     17   S      48            29.2101553    0.232184443216
     17   S      49             9.2866630    0.467941348435
     17   S      50             3.1639270    0.362311985337

     18   L      51             7.8682723   -0.119332419775    0.068999066591
     18   L      52             1.8812885   -0.160854151696    0.316423960957
     18   L      53             0.5442493    1.143456437840    0.744308290898

     19   L      54             0.1687145    1.000000000000    1.000000000000

     20   D      55             0.8000000    1.000000000000

 C         

     21   S      56          3047.5248800    0.001834737132
     21   S      57           457.3695180    0.014037322813
     21   S      58           103.9486850    0.068842622264
     21   S      59            29.2101553    0.232184443216
     21   S      60             9.2866630    0.467941348435
     21   S      61             3.1639270    0.362311985337

     22   L      62             7.8682723   -0.119332419775    0.068999066591
     22   L      63             1.8812885   -0.160854151696    0.316423960957
     22   L      64             0.5442493    1.143456437840    0.744308290898

     23   L      65             0.1687145    1.000000000000    1.000000000000

     24   D      66             0.8000000    1.000000000000

 C         

     25   S      67          3047.5248800    0.001834737132
     25   S      68           457.3695180    0.014037322813
     25   S      69           103.9486850    0.068842622264
     25   S      70            29.2101553    0.232184443216
     25   S      71             9.2866630    0.467941348435
     25   S      72             3.1639270    0.362311985337

     26   L      73             7.8682723   -0.119332419775    0.068999066591
     26   L      74             1.8812885   -0.160854151696    0.316423960957
     26   L      75             0.5442493    1.143456437840    0.744308290898

     27   L      76             0.1687145    1.000000000000    1.000000000000

     28   D      77             0.8000000    1.000000000000

 C         

     29   S      78          3047.5248800    0.001834737132
     29   S      79           457.3695180    0.014037322813
     29   S      80           103.9486850    0.068842622264
     29   S      81            29.2101553    0.232184443216
     29   S      82             9.2866630    0.467941348435
     29   S      83             3.1639270    0.362311985337

     30   L      84             7.8682723   -0.119332419775    0.068999066591
     30   L      85             1.8812885   -0.160854151696    0.316423960957
     30   L      86             0.5442493    1.143456437840    0.744308290898

     31   L      87             0.1687145    1.000000000000    1.000000000000

     32   D      88             0.8000000    1.000000000000

 C         

     33   S      89          3047.5248800    0.001834737132
     33   S      90           457.3695180    0.014037322813
     33   S      91           103.9486850    0.068842622264
     33   S      92            29.2101553    0.232184443216
     33   S      93             9.2866630    0.467941348435
     33   S      94             3.1639270    0.362311985337

     34   L      95             7.8682723   -0.119332419775    0.068999066591
     34   L      96             1.8812885   -0.160854151696    0.316423960957
     34   L      97             0.5442493    1.143456437840    0.744308290898

     35   L      98             0.1687145    1.000000000000    1.000000000000

     36   D      99             0.8000000    1.000000000000

 C         

     37   S     100          3047.5248800    0.001834737132
     37   S     101           457.3695180    0.014037322813
     37   S     102           103.9486850    0.068842622264
     37   S     103            29.2101553    0.232184443216
     37   S     104             9.2866630    0.467941348435
     37   S     105             3.1639270    0.362311985337

     38   L     106             7.8682723   -0.119332419775    0.068999066591
     38   L     107             1.8812885   -0.160854151696    0.316423960957
     38   L     108             0.5442493    1.143456437840    0.744308290898

     39   L     109             0.1687145    1.000000000000    1.000000000000

     40   D     110             0.8000000    1.000000000000

 C         

     41   S     111          3047.5248800    0.001834737132
     41   S     112           457.3695180    0.014037322813
     41   S     113           103.9486850    0.068842622264
     41   S     114            29.2101553    0.232184443216
     41   S     115             9.2866630    0.467941348435
     41   S     116             3.1639270    0.362311985337

     42   L     117             7.8682723   -0.119332419775    0.068999066591
     42   L     118             1.8812885   -0.160854151696    0.316423960957
     42   L     119             0.5442493    1.143456437840    0.744308290898

     43   L     120             0.1687145    1.000000000000    1.000000000000

     44   D     121             0.8000000    1.000000000000

 C         

     45   S     122          3047.5248800    0.001834737132
     45   S     123           457.3695180    0.014037322813
     45   S     124           103.9486850    0.068842622264
     45   S     125            29.2101553    0.232184443216
     45   S     126             9.2866630    0.467941348435
     45   S     127             3.1639270    0.362311985337

     46   L     128             7.8682723   -0.119332419775    0.068999066591
     46   L     129             1.8812885   -0.160854151696    0.316423960957
     46   L     130             0.5442493    1.143456437840    0.744308290898

     47   L     131             0.1687145    1.000000000000    1.000000000000

     48   D     132             0.8000000    1.000000000000

 C         

     49   S     133          3047.5248800    0.001834737132
     49   S     134           457.3695180    0.014037322813
     49   S     135           103.9486850    0.068842622264
     49   S     136            29.2101553    0.232184443216
     49   S     137             9.2866630    0.467941348435
     49   S     138             3.1639270    0.362311985337

     50   L     139             7.8682723   -0.119332419775    0.068999066591
     50   L     140             1.8812885   -0.160854151696    0.316423960957
     50   L     141             0.5442493    1.143456437840    0.744308290898

     51   L     142             0.1687145    1.000000000000    1.000000000000

     52   D     143             0.8000000    1.000000000000

 C         

     53   S     144          3047.5248800    0.001834737132
     53   S     145           457.3695180    0.014037322813
     53   S     146           103.9486850    0.068842622264
     53   S     147            29.2101553    0.232184443216
     53   S     148             9.2866630    0.467941348435
     53   S     149             3.1639270    0.362311985337

     54   L     150             7.8682723   -0.119332419775    0.068999066591
     54   L     151             1.8812885   -0.160854151696    0.316423960957
     54   L     152             0.5442493    1.143456437840    0.744308290898

     55   L     153             0.1687145    1.000000000000    1.000000000000

     56   D     154             0.8000000    1.000000000000

 H         

     57   S     155            18.7311370    0.033494604338
     57   S     156             2.8253944    0.234726953484
     57   S     157             0.6401217    0.813757326146

     58   S     158             0.1612778    1.000000000000

 H         

     59   S     159            18.7311370    0.033494604338
     59   S     160             2.8253944    0.234726953484
     59   S     161             0.6401217    0.813757326146

     60   S     162             0.1612778    1.000000000000

 H         

     61   S     163            18.7311370    0.033494604338
     61   S     164             2.8253944    0.234726953484
     61   S     165             0.6401217    0.813757326146

     62   S     166             0.1612778    1.000000000000

 H         

     63   S     167            18.7311370    0.033494604338
     63   S     168             2.8253944    0.234726953484
     63   S     169             0.6401217    0.813757326146

     64   S     170             0.1612778    1.000000000000

 H         

     65   S     171            18.7311370    0.033494604338
     65   S     172             2.8253944    0.234726953484
     65   S     173             0.6401217    0.813757326146

     66   S     174             0.1612778    1.000000000000

 H         

     67   S     175            18.7311370    0.033494604338
     67   S     176             2.8253944    0.234726953484
     67   S     177             0.6401217    0.813757326146

     68   S     178             0.1612778    1.000000000000

 H         

     69   S     179            18.7311370    0.033494604338
     69   S     180             2.8253944    0.234726953484
     69   S     181             0.6401217    0.813757326146

     70   S     182             0.1612778    1.000000000000

 H         

     71   S     183            18.7311370    0.033494604338
     71   S     184             2.8253944    0.234726953484
     71   S     185             0.6401217    0.813757326146

     72   S     186             0.1612778    1.000000000000

 H         

     73   S     187            18.7311370    0.033494604338
     73   S     188             2.8253944    0.234726953484
     73   S     189             0.6401217    0.813757326146

     74   S     190             0.1612778    1.000000000000

 H         

     75   S     191            18.7311370    0.033494604338
     75   S     192             2.8253944    0.234726953484
     75   S     193             0.6401217    0.813757326146

     76   S     194             0.1612778    1.000000000000

 TOTAL NUMBER OF BASIS SET SHELLS             =   76
 NUMBER OF CARTESIAN GAUSSIAN BASIS FUNCTIONS =  230
 NUMBER OF ELECTRONS                          =   94
 CHARGE OF MOLECULE                           =    0
 SPIN MULTIPLICITY                            =    1
 NUMBER OF OCCUPIED ORBITALS (ALPHA)          =   47
 NUMBER OF OCCUPIED ORBITALS (BETA )          =   47
 TOTAL NUMBER OF ATOMS                        =   24
 THE NUCLEAR REPULSION ENERGY IS      766.3548992199

     $CONTRL OPTIONS
     ---------------
 SCFTYP=MCSCF        RUNTYP=ENERGY       EXETYP=RUN     
 MPLEVL=       0     CITYP =NONE         CCTYP =NONE         VBTYP =NONE    
 DFTTYP=NONE         TDDFT =NONE    
 MULT  =       1     ICHARG=       0     NZVAR =       0     COORD =UNIQUE  
 PP    =NONE         RELWFN=NONE         LOCAL =NONE         NUMGRD=       F
 ISPHER=      -1     NOSYM =       0     MAXIT =      30     UNITS =ANGS    
 PLTORB=       F     MOLPLT=       F     AIMPAC=       F     FRIEND=        
 NPRINT=       7     IREST =       0     GEOM  =INPUT   
 NORMF =       0     NORMP =       0     ITOL  =      20     ICUT  =       9
 INTTYP=BEST         GRDTYP=BEST         QMTTOL= 1.0E-06

     $SYSTEM OPTIONS
     ---------------
  REPLICATED MEMORY=     2185666 WORDS (ON EVERY NODE).
 DISTRIBUTED MEMDDI=           0 MILLION WORDS IN AGGREGATE,
 MEMDDI DISTRIBUTED OVER   1 PROCESSORS IS           0 WORDS/PROCESSOR.
 TOTAL MEMORY REQUESTED ON EACH PROCESSOR=     2185666 WORDS.
 TIMLIM=      525600.00 MINUTES, OR     365.0 DAYS.
 PARALL= F  BALTYP=  DLB     KDIAG=    0  COREFL= F
 MXSEQ2=     300 MXSEQ3=     150

          ----------------
          PROPERTIES INPUT
          ----------------

     MOMENTS            FIELD           POTENTIAL          DENSITY
 IEMOM =       1   IEFLD =       0   IEPOT =       0   IEDEN =       0
 WHERE =COMASS     WHERE =NUCLEI     WHERE =NUCLEI     WHERE =NUCLEI  
 OUTPUT=BOTH       OUTPUT=BOTH       OUTPUT=BOTH       OUTPUT=BOTH    
 IEMINT=       0   IEFINT=       0                     IEDINT=       0
                                                       MORB  =       0

     -------------------------------
     INTEGRAL TRANSFORMATION OPTIONS
     -------------------------------
     NWORD  =            0
     CUTOFF = 1.0E-09     MPTRAN =       0
     DIRTRF =       F     AOINTS =DUP     

          ----------------------
          MCSCF INPUT PARAMETERS
          ----------------------
 CONVERGER SELECTION: FOCAS = F  SOSCF = T  FULLNR = F  QUD = F  JACOBI = F
 SECULAR EQUATION METHOD CISTEP = GUGA    
 --- GENERAL INPUT OPTIONS:
 MAXIT =     200  MICIT =       5  ACURCY= 1.000E-05
 DAMP  =   0.000  CANONC=       T  ENGTOL= 1.000E-10
 EKT   =       F  NPUNCH=       2  NWORD =         0
 REGENERATE CI AFTER CONVERGENCE = NONE    
 DIABATIZATION AFTER CONVERGENCE =        F
 --- INPUT FOR SOSCF CONVERGER:
 FORS  =       T  NOFO  =       1

          ----------------------
          INTEGRAL INPUT OPTIONS
          ----------------------
 NOPK  =       1 NORDER=       0 SCHWRZ=       T

     ------------------------------------------
     THE POINT GROUP IS C1 , NAXIS= 0, ORDER= 1
     ------------------------------------------

     DIMENSIONS OF THE SYMMETRY SUBSPACES ARE
 A   =  230

 ..... DONE SETTING UP THE RUN .....
 STEP CPU TIME =     0.07 TOTAL CPU TIME =        0.1 (    0.0 MIN)
 TOTAL WALL CLOCK TIME=        0.1 SECONDS, CPU UTILIZATION IS  87.50%

          ********************
          1 ELECTRON INTEGRALS
          ********************
 TIME TO DO   DIPOLE INTEGRALS=      0.06
 ...... END OF ONE-ELECTRON INTEGRALS ......
 STEP CPU TIME =     0.06 TOTAL CPU TIME =        0.1 (    0.0 MIN)
 TOTAL WALL CLOCK TIME=        0.1 SECONDS, CPU UTILIZATION IS  92.86%

          -------------
          GUESS OPTIONS
          -------------
          GUESS =MOREAD            NORB  =      47          NORDER=       0
          MIX   =       F          PRTMO =       F          PUNMO =       F
          TOLZ  = 1.0E-08          TOLE  = 1.0E-05
          SYMDEN=       F          PURIFY=       F

 INITIAL GUESS ORBITALS GENERATED BY MOREAD   ROUTINE.

 SYMMETRIES FOR INITIAL GUESS ORBITALS FOLLOW.   BOTH SET(S).
    47 ORBITALS ARE OCCUPIED (   14 CORE ORBITALS).
     1=A        2=A        3=A        4=A        5=A        6=A        7=A   
     8=A        9=A       10=A       11=A       12=A       13=A       14=A   
    15=A       16=A       17=A       18=A       19=A       20=A       21=A   
    22=A       23=A       24=A       25=A       26=A       27=A       28=A   
    29=A       30=A       31=A       32=A       33=A       34=A       35=A   
    36=A       37=A       38=A       39=A       40=A       41=A       42=A   
    43=A       44=A       45=A       46=A       47=A       48=A       49=A   
    50=A       51=A       52=A       53=A       54=A       55=A       56=A   
    57=A       58=A       59=A       60=A       61=A       62=A       63=A   
    64=A       65=A       66=A       67=A       68=A       69=A       70=A   
    71=A       72=A       73=A       74=A       75=A       76=A       77=A   
    78=A       79=A       80=A       81=A       82=A       83=A       84=A   
    85=A       86=A       87=A       88=A       89=A       90=A       91=A   
    92=A       93=A       94=A       95=A       96=A       97=A       98=A   
    99=A      100=A      101=A      102=A      103=A      104=A      105=A   
   106=A      107=A      108=A      109=A      110=A      111=A      112=A   
   113=A      114=A      115=A      116=A      117=A      118=A      119=A   
   120=A      121=A      122=A      123=A      124=A      125=A      126=A   
   127=A      128=A      129=A      130=A      131=A      132=A      133=A   
   134=A      135=A      136=A      137=A      138=A      139=A      140=A   
   141=A      142=A      143=A      144=A      145=A      146=A      147=A   
   148=A      149=A      150=A      151=A      152=A      153=A      154=A   
   155=A      156=A      157=A      158=A      159=A      160=A      161=A   
   162=A      163=A      164=A      165=A      166=A      167=A      168=A   
   169=A      170=A      171=A      172=A      173=A      174=A      175=A   
   176=A      177=A      178=A      179=A      180=A      181=A      182=A   
   183=A      184=A      185=A      186=A      187=A      188=A      189=A   
   190=A      191=A      192=A      193=A      194=A      195=A      196=A   
   197=A      198=A      199=A      200=A      201=A      202=A      203=A   
   204=A      205=A      206=A      207=A      208=A      209=A      210=A   
   211=A      212=A      213=A      214=A      215=A      216=A      217=A   
   218=A      219=A      220=A      221=A      222=A      223=A      224=A   
   225=A      226=A      227=A      228=A      229=A      230=A   
 ...... END OF INITIAL ORBITAL SELECTION ......
 STEP CPU TIME =     0.06 TOTAL CPU TIME =        0.2 (    0.0 MIN)
 TOTAL WALL CLOCK TIME=        0.2 SECONDS, CPU UTILIZATION IS  95.00%

                    ----------------------
                    AO INTEGRAL TECHNOLOGY
                    ----------------------
     S,P,L SHELL ROTATED AXIS INTEGRALS, REPROGRAMMED BY
        KAZUYA ISHIMURA (IMS) AND JOSE SIERRA (SYNSTAR).
     S,P,D,L SHELL ROTATED AXIS INTEGRALS PROGRAMMED BY
        KAZUYA ISHIMURA (INSTITUTE FOR MOLECULAR SCIENCE).
     S,P,D,F,G SHELL TO TOTAL QUARTET ANGULAR MOMENTUM SUM 5,
        ERIC PROGRAM BY GRAHAM FLETCHER (ELORET AND NASA ADVANCED
        SUPERCOMPUTING DIVISION, AMES RESEARCH CENTER).
     S,P,D,F,G,L SHELL GENERAL RYS QUADRATURE PROGRAMMED BY
        MICHEL DUPUIS (PACIFIC NORTHWEST NATIONAL LABORATORY).

          --------------------
          2 ELECTRON INTEGRALS
          --------------------

 THE -PK- OPTION IS OFF, THE INTEGRALS ARE NOT IN SUPERMATRIX FORM.
 STORING   15000 INTEGRALS/RECORD ON DISK, USING 12 BYTES/INTEGRAL.
 TWO ELECTRON INTEGRAL EVALUATION REQUIRES   93322 WORDS OF MEMORY.
 SCHWARZ INEQUALITY OVERHEAD:     24190 INTEGRALS, T=        0.02
 II,JST,KST,LST =  1  1  1  1 NREC =         1 INTLOC =    1
 II,JST,KST,LST =  2  1  1  1 NREC =         1 INTLOC =    2
 II,JST,KST,LST =  3  1  1  1 NREC =         1 INTLOC =   34
 II,JST,KST,LST =  4  1  1  1 NREC =         1 INTLOC =  214
 II,JST,KST,LST =  5  1  1  1 NREC =         1 INTLOC = 1189
 II,JST,KST,LST =  6  1  1  1 NREC =         1 INTLOC = 1550
 II,JST,KST,LST =  7  1  1  1 NREC =         1 INTLOC = 5005
 II,JST,KST,LST =  8  1  1  1 NREC =         1 INTLOC =11299
 II,JST,KST,LST =  9  1  1  1 NREC =         2 INTLOC =11435
 II,JST,KST,LST = 10  1  1  1 NREC =         2 INTLOC =14639
 II,JST,KST,LST = 11  1  1  1 NREC =         5 INTLOC =  515
 II,JST,KST,LST = 12  1  1  1 NREC =         8 INTLOC = 7196
 II,JST,KST,LST = 13  1  1  1 NREC =        14 INTLOC = 2987
 II,JST,KST,LST = 14  1  1  1 NREC =        14 INTLOC = 8990
 II,JST,KST,LST = 15  1  1  1 NREC =        18 INTLOC = 8997
 II,JST,KST,LST = 16  1  1  1 NREC =        25 INTLOC =14691
 II,JST,KST,LST = 17  1  1  1 NREC =        35 INTLOC = 6801
 II,JST,KST,LST = 18  1  1  1 NREC =        36 INTLOC = 5525
 II,JST,KST,LST = 19  1  1  1 NREC =        45 INTLOC = 2302
 II,JST,KST,LST = 20  1  1  1 NREC =        60 INTLOC =  368
 II,JST,KST,LST = 21  1  1  1 NREC =        78 INTLOC = 5195
 II,JST,KST,LST = 22  1  1  1 NREC =        79 INTLOC = 9934
 II,JST,KST,LST = 23  1  1  1 NREC =        92 INTLOC =11422
 II,JST,KST,LST = 24  1  1  1 NREC =       116 INTLOC =10836
 II,JST,KST,LST = 25  1  1  1 NREC =       142 INTLOC = 5842
 II,JST,KST,LST = 26  1  1  1 NREC =       148 INTLOC = 9313
 II,JST,KST,LST = 27  1  1  1 NREC =       183 INTLOC = 7135
 II,JST,KST,LST = 28  1  1  1 NREC =       233 INTLOC = 3780
 II,JST,KST,LST = 29  1  1  1 NREC =       301 INTLOC = 7241
 II,JST,KST,LST = 30  1  1  1 NREC =       311 INTLOC = 6731
 II,JST,KST,LST = 31  1  1  1 NREC =       369 INTLOC = 2632
 II,JST,KST,LST = 32  1  1  1 NREC =       448 INTLOC = 3386
 II,JST,KST,LST = 33  1  1  1 NREC =       555 INTLOC = 3189
 II,JST,KST,LST = 34  1  1  1 NREC =       563 INTLOC = 9166
 II,JST,KST,LST = 35  1  1  1 NREC =       616 INTLOC = 2973
 II,JST,KST,LST = 36  1  1  1 NREC =       703 INTLOC =12604
 II,JST,KST,LST = 37  1  1  1 NREC =       796 INTLOC = 2175
 II,JST,KST,LST = 38  1  1  1 NREC =       806 INTLOC =  675
 II,JST,KST,LST = 39  1  1  1 NREC =       867 INTLOC =13075
 II,JST,KST,LST = 40  1  1  1 NREC =       971 INTLOC =14676
 II,JST,KST,LST = 41  1  1  1 NREC =      1078 INTLOC =11202
 II,JST,KST,LST = 42  1  1  1 NREC =      1093 INTLOC =13249
 II,JST,KST,LST = 43  1  1  1 NREC =      1183 INTLOC = 7948
 II,JST,KST,LST = 44  1  1  1 NREC =      1323 INTLOC = 7479
 II,JST,KST,LST = 45  1  1  1 NREC =      1475 INTLOC =10524
 II,JST,KST,LST = 46  1  1  1 NREC =      1493 INTLOC = 4030
 II,JST,KST,LST = 47  1  1  1 NREC =      1596 INTLOC =14429
 II,JST,KST,LST = 48  1  1  1 NREC =      1760 INTLOC =  567
 II,JST,KST,LST = 49  1  1  1 NREC =      1933 INTLOC =13698
 II,JST,KST,LST = 50  1  1  1 NREC =      1971 INTLOC =12184
 II,JST,KST,LST = 51  1  1  1 NREC =      2187 INTLOC = 6876
 II,JST,KST,LST = 52  1  1  1 NREC =      2483 INTLOC = 3377
 II,JST,KST,LST = 53  1  1  1 NREC =      2847 INTLOC =  267
 II,JST,KST,LST = 54  1  1  1 NREC =      2896 INTLOC =  903
 II,JST,KST,LST = 55  1  1  1 NREC =      3182 INTLOC = 5518
 II,JST,KST,LST = 56  1  1  1 NREC =      3568 INTLOC = 8474
 II,JST,KST,LST = 57  1  1  1 NREC =      4043 INTLOC =  969
 II,JST,KST,LST = 58  1  1  1 NREC =      4097 INTLOC = 3805
 II,JST,KST,LST = 59  1  1  1 NREC =      4193 INTLOC = 2635
 II,JST,KST,LST = 60  1  1  1 NREC =      4248 INTLOC = 5319
 II,JST,KST,LST = 61  1  1  1 NREC =      4346 INTLOC = 6701
 II,JST,KST,LST = 62  1  1  1 NREC =      4417 INTLOC = 9897
 II,JST,KST,LST = 63  1  1  1 NREC =      4539 INTLOC = 9539
 II,JST,KST,LST = 64  1  1  1 NREC =      4612 INTLOC =13711
 II,JST,KST,LST = 65  1  1  1 NREC =      4738 INTLOC =11926
 II,JST,KST,LST = 66  1  1  1 NREC =      4800 INTLOC = 4035
 II,JST,KST,LST = 67  1  1  1 NREC =      4909 INTLOC = 2260
 II,JST,KST,LST = 68  1  1  1 NREC =      4971 INTLOC =10620
 II,JST,KST,LST = 69  1  1  1 NREC =      5082 INTLOC =14441
 II,JST,KST,LST = 70  1  1  1 NREC =      5133 INTLOC =11689
 II,JST,KST,LST = 71  1  1  1 NREC =      5221 INTLOC =14022
 II,JST,KST,LST = 72  1  1  1 NREC =      5273 INTLOC = 6526
 II,JST,KST,LST = 73  1  1  1 NREC =      5362 INTLOC =11653
 II,JST,KST,LST = 74  1  1  1 NREC =      5416 INTLOC = 7235
 II,JST,KST,LST = 75  1  1  1 NREC =      5508 INTLOC =10129
 II,JST,KST,LST = 76  1  1  1 NREC =      5563 INTLOC = 1528
 SCHWARZ INEQUALITY TEST SKIPPED     2328228 INTEGRAL BLOCKS.
 TOTAL NUMBER OF NONZERO TWO-ELECTRON INTEGRALS =            84832992
       5656 INTEGRAL RECORDS WERE STORED ON DISK FILE  8.
  ...... END OF TWO-ELECTRON INTEGRALS .....
 STEP CPU TIME =    11.78 TOTAL CPU TIME =       12.0 (    0.2 MIN)
 TOTAL WALL CLOCK TIME=       12.0 SECONDS, CPU UTILIZATION IS  99.92%

          -----------------
          MCSCF CALCULATION
          -----------------

 ----- NUCLEAR ENERGY ----- =       766.3548992199

          -----------------------     ----------------------------
          GUGA DISTINCT ROW TABLE     WRITTEN BY B.R.BROOKS,P.SAXE
          -----------------------     ----------------------------

      GROUP=C1           NPRT=       0
       FORS=       T   INTACT=       F
       FOCI=       F   MXNINT=   50000
       SOCI=       F   MXNEME=   10000
     IEXCIT=       0

      -CORE-    -INTERNAL-  -EXTERNAL-
     NFZC=   0   NDOC=   7   NEXT=   0
     NMCC=  40   NAOS=   0   NFZV=   0
                 NBOS=   0
                 NALP=   0
                 NVAL=   0

 THE MAXIMUM ELECTRON EXCITATION WILL BE   0

 SYMMETRIES FOR THE  40 CORE,   7 ACTIVE,   0 EXTERNAL MO-S ARE
     CORE= A     A     A     A     A     A     A     A     A     A   
           A     A     A     A     A     A     A     A     A     A   
           A     A     A     A     A     A     A     A     A     A   
           A     A     A     A     A     A     A     A     A     A   
   ACTIVE= A     A     A     A     A     A     A   
           DOC   DOC   DOC   DOC   DOC   DOC   DOC 

 MOLECULAR CHARGE          =    0
 NUMBER OF ALPHA ELECTRONS =   47
 NUMBER OF  BETA ELECTRONS =   47

 THE ELECTRONIC STATE IS  1-A   

 THE DISTINCT ROW TABLE HAS         8 ROWS.
  THE WAVEFUNCTION CONTAINS         1 WALKS (CSF-S).

 TOTAL NUMBER OF INTEGRALS =        504
 NUMBER OF INTEGRALS/GROUP =        504
 NUMBER OF INTEGRAL GROUPS =          1
 MAXIMUM RECORD SIZES ARE     500 FOR UNIT 11      22 FOR UNIT 12
                            30001 FOR UNIT 15   30001 FOR UNIT 16
 ...... END OF -DRT- GENERATION ...... 
 STEP CPU TIME =     0.01 TOTAL CPU TIME =       12.0 (    0.2 MIN)
 TOTAL WALL CLOCK TIME=       12.0 SECONDS, CPU UTILIZATION IS  99.83%
 OPENING FILE DAFL30 WITH      81 LOGICAL RECORDS OF   52900 WORDS
 WITH A MAXIMUM OF        2106 PHYSICAL RECORDS OF    2048 WORDS

          ------------------------------
          CASSCF INTEGRAL TRANSFORMATION
          ------------------------------
 AO INTEGRALS WILL BE READ IN FROM DISK...

 NUMBER OF CORE MOLECULAR ORBITALS     =    40
 NUMBER OF OCCUPIED MOLECULAR ORBITALS =    47
 TOTAL NUMBER OF MOLECULAR ORBITALS    =   230
 TOTAL NUMBER OF ATOMIC ORBITALS       =   230
 MEMORY WHICH WOULD BE NEEDED FOR SINGLE PASS TRANSFORMATION =   43729426

 ----- CHOOSING TWO STEPS TRANSFORMATION -----
 NUMBER OF WORDS USED      =     959776
 NUMBER OF WORDS AVAILABLE =    2185666

 ----- NUCLEAR REPULSION ENERGY =    766.35489922
 ----- FROZEN CORE ENERGY       =  -1279.57783564

 ... SYMMETRY ...           CPU =    0.02
 ... (PQ|RS) -> (PQ|KL) ... CPU =   22.72
 ... (PQ|KL) -> (IJ|KL) ... CPU =    0.03

 NUMBER OF (PQ|KL) INTEGRALS WRITTEN     286480
 NUMBER OF (IJ|KL) INTEGRALS WRITTEN         76
 ..... END OF CAS INTEGRAL TRANSFORMATION .....
 STEP CPU TIME =    22.77 TOTAL CPU TIME =       34.8 (    0.6 MIN)
 TOTAL WALL CLOCK TIME=       34.9 SECONDS, CPU UTILIZATION IS  99.60%

          ------------------------
          GUGA-CI INTEGRAL SORTING
          ------------------------

     80127 WORDS NEEDED TO SORT            504 GUGA INTEGRALS IN MEMORY
   2185666 WORDS ARE AVAILABLE
 CHOOSING IN-MEMORY SORTING...
 IN CORE ALGORITHM SORTED             28 NON-ZERO 1E- INTEGRALS
 IN CORE ALGORITHM SORTED             76 NON-ZERO 2E- INTEGRALS
 ...... END OF INTEGRAL SORTING ...... 
 STEP CPU TIME =     0.00 TOTAL CPU TIME =       34.8 (    0.6 MIN)
 TOTAL WALL CLOCK TIME=       34.9 SECONDS, CPU UTILIZATION IS  99.57%

 -------------------------     ---------------------------------------
 ENERGY MATRIX CALCULATION     WRITTEN BY B.R.BROOKS,W.D.LAIDIG,P.SAXE
 -------------------------     ---------------------------------------

 COMPUTING THE HAMILTONIAN FOR THE         1 CSF-S...

          28 IS THE TOTAL NUMBER OF GENERATED LOOPS
          28 WERE CREATED BY THE LOOP-DRIVEN ALGORITHM
           0 WERE CREATED IMPLICITLY

          28 IS THE TOTAL NUMBER OF PROCESSED LOOPS
          28     DIAGONAL LOOPS ARE STORED ON WORK15 IN     1 BUFFERS OF  10000 ELEMENTS.
           0 OFF DIAGONAL LOOPS ARE STORED ON WORK16 IN     1 BUFFERS OF  10000 ELEMENTS.
 ...... END OF ENERGY MATRIX CALCULATION ...... 
 STEP CPU TIME =     0.00 TOTAL CPU TIME =       34.8 (    0.6 MIN)
 TOTAL WALL CLOCK TIME=       34.9 SECONDS, CPU UTILIZATION IS  99.57%

          -----------------------------------------
          DAVIDSON METHOD CI-MATRIX DIAGONALIZATION
                   WRITTEN BY STEVE ELBERT
          -----------------------------------------
 NUMBER OF STATES REQUESTED =     1
 MAX. NUMB. OF EXPAN. VEC   =    30
 MAX. NUMB. IMPROVED STATES =     1
 MAX. NUMB. OF ITERATIONS   =    50
 CONVERGENCE CRITERION      =    1.0E-05

 CHOOSING TO SOLVE SECULAR EQUATION IN MEMORY
 NUMBER OF WORDS AVAILABLE =    2185666
 NUMBER OF WORDS USED      =      31108
 ENERGY MATRIX BUFFER SIZE =      10000
 SOLUTION FOUND WITH DIRECT METHOD

 STATE #    1  ENERGY =    -535.995897938

      CSF      COEF    OCCUPANCY (IGNORING CORE)
      ---      ----    --------- --------- -----
        1    1.000000  2222222
 ...... END OF CI-MATRIX DIAGONALIZATION ......
 STEP CPU TIME =     0.00 TOTAL CPU TIME =       34.8 (    0.6 MIN)
 TOTAL WALL CLOCK TIME=       34.9 SECONDS, CPU UTILIZATION IS  99.57%

          -------------------------------------
          2-PARTICLE DENSITY MATRIX CALCULATION
          -------------------------------------
 2 BODY DENSITY IS AN AVERAGE OF  1 STATE(S).
   STATE    WEIGHT          ENERGY
     1    1.000000     -535.9958979380
           28 -DM2- LOOPS WERE GENERATED
           28 WERE CREATED BY THE LOOP-DRIVEN ALGORITHM
            0 WERE CREATED IMPLICITLY
          1 RECORDS OF LENGTH 50000 WRITTEN TO FILE 15
 ...... END OF 2-PARTICLE DENSITY MATRIX CALCULATION ......
 STEP CPU TIME =     0.01 TOTAL CPU TIME =       34.8 (    0.6 MIN)
 TOTAL WALL CLOCK TIME=       34.9 SECONDS, CPU UTILIZATION IS  99.60%

          ----------------------------------
          2-PARTICLE DENSITY MATRIX LABELING
          ----------------------------------
      97586 WORDS NEEDED TO LABEL DM2 MATRIX
          1 RECORDS OF LENGTH 50000  READ FROM FILE 15
          1 RECORDS OF LENGTH 15000 WRITTEN TO FILE 16
 ...... END OF 2-PARTICLE DENSITY MATRIX LABELING ......
 STEP CPU TIME =     0.00 TOTAL CPU TIME =       34.8 (    0.6 MIN)
 TOTAL WALL CLOCK TIME=       34.9 SECONDS, CPU UTILIZATION IS  99.60%

          --------------
          -DM2- ORDERING
          --------------
      30435 WORDS NEEDED (   2185666 AVAILABLE) TO ORDER DM2 IN MEMORY
 CHOOSING IN MEMORY ORDERING...
                               1 RECORDS OF LENGTH 15000  READ FROM FILE 16
         49 DM2 VALUES IN      1 RECORDS OF LENGTH 15000 WRITTEN TO FILE 15
 ...... END OF -DM2- ORDERING ...... 
 STEP CPU TIME =     0.00 TOTAL CPU TIME =       34.8 (    0.6 MIN)
 TOTAL WALL CLOCK TIME=       34.9 SECONDS, CPU UTILIZATION IS  99.57%

          --------------------------------------
          APPROXIMATE SECOND-ORDER MCSCF PROGRAM
          --------------------------------------
          PROGRAM WRITTEN BY G.CHABAN, A.MARQUEZ, AND M.DUPUIS

  NUMBER OF WORDS NEEDED     =    1110117
  NUMBER AVAILABLE           =    2185666

 ----- GAMMA(IJKL)*(PQ|KL) PRODUCTS ----- CPU TIME =      0.090
 ----- ORBITAL SYMMETRY             ----- CPU TIME =      0.000
 ----- FOCK OPERATORS CONSTRUCTION  ----- CPU TIME =      1.630
 ----- WARNING : CORE-ACTIVE GAP    =    0.00888
     MICIT =   1 ASYMM =    0.000003 ROTMAX =    0.000000
 ----- EFFECTIVE FOCK + ROTATE ORBS ----- CPU TIME =      0.070
 ..... DONE WITH CASSCF ORBITAL UPDATE .....
 STEP CPU TIME =     1.79 TOTAL CPU TIME =       36.5 (    0.6 MIN)
 TOTAL WALL CLOCK TIME=       36.7 SECONDS, CPU UTILIZATION IS  99.59%

 ITER     TOTAL ENERGY      DEL(E)  LAGRANGIAN ASYMMETRY   SQCDF  MICIT   DAMP
   1     -535.995897938 -0.995897938  0.000003   49    9 2.455E-07  1   0.0000
       ----------START APPROXIMATE SECOND ORDER MCSCF----------
   2     -535.995897938 -0.000000000  0.000001   50   38 6.608E-13  1   0.0000

          --------------------
          LAGRANGIAN CONVERGED
          --------------------

 FINAL MCSCF ENERGY IS     -535.9958979380 AFTER   2 ITERATIONS

 -MCCI- BASED ON OPTIMIZED ORBITALS
 ----------------------------------

 PLEASE NOTE: IF THE ACTIVE ORBITALS ARE CANONICALIZED BELOW,
 THE FOLLOWING CI EXPANSION COEFFICIENTS AND THE DENSITY DO NOT
 CORRESPOND TO THE PRINTED ORBITALS.  THE PRINTED EXPANSIONS MATCH
 THE ORBITALS USED DURING THE LAST ITERATION.  IF YOU WISH TO SEE
 CI EXPANSIONS BASED ON THE CANONICAL (OR NATURAL) ORBITALS, YOU
 MUST RUN A CI CALCULATION WITH THAT ORBITAL CHOICE READ IN $VEC.

 STATE #    1  ENERGY =    -535.995897938

      CSF      COEF    OCCUPANCY (IGNORING CORE)
      ---      ----    --------- --------- -----
        1    1.000000  2222222

 DENSITY MATRIX OVER ACTIVE MO-S

             1           2           3           4           5

    1    2.0000000
    2    0.0000000   2.0000000
    3    0.0000000   0.0000000   2.0000000
    4    0.0000000   0.0000000   0.0000000   2.0000000
    5    0.0000000   0.0000000   0.0000000   0.0000000   2.0000000
    6    0.0000000   0.0000000   0.0000000   0.0000000   0.0000000
    7    0.0000000   0.0000000   0.0000000   0.0000000   0.0000000

             6           7

    6    2.0000000
    7    0.0000000   2.0000000

 * * * WARNING * * *
 YOUR NATURAL ORBITALS HAVE   7 DOUBLY OCCUPIED ACTIVE ORBITALS.
 AT THE VERY LEAST, THIS IS A WASTE OF COMPUTER TIME,
 BUT IT MAY REVEAL A FLAW IN YOUR MCSCF COMPUTATION:
   CHECK YOUR FORMULATION OF THE ACTIVE SPACE,
   AS WELL AS MECHANICAL THINGS LIKE STARTING ORBITALS.

 FORMING THE "STANDARD FOCK OPERATOR" USING INTEGRALS FROM DISK...
    40 FILLED,    7 ACTIVE, AND  183 VIRTUAL ORBITALS  WILL BE CANONICALIZED

          ----------------------
          MCSCF NATURAL ORBITALS
          ----------------------

                      1          2          3          4          5
                  -11.2442   -11.2441   -11.2433   -11.2432   -11.2369
                     A          A          A          A          A   
    1  C  1  S    0.078058   0.000000  -0.090287  -0.000000  -0.316442
    2  C  1  S    0.001957   0.000000  -0.002364  -0.000000  -0.008917
    3  C  1  X   -0.000000   0.000167  -0.000000   0.000196   0.000000
    4  C  1  Y    0.000127   0.000000  -0.000101  -0.000000   0.000029
    5  C  1  Z   -0.000000  -0.000000  -0.000000  -0.000000   0.000000
    6  C  1  S    0.002689   0.000000  -0.005719  -0.000000   0.004808
    7  C  1  X    0.000000  -0.001124   0.000000  -0.000497   0.000000
    8  C  1  Y   -0.000570  -0.000000   0.002261   0.000000  -0.000469
    9  C  1  Z   -0.000000  -0.000000  -0.000000  -0.000000   0.000000
   10  C  1 XX   -0.000515  -0.000000   0.000690   0.000000   0.000531
   11  C  1 YY   -0.000406  -0.000000   0.000592   0.000000   0.000600
   12  C  1 ZZ   -0.000296  -0.000000   0.000343   0.000000   0.000731
   13  C  1 XY    0.000000  -0.000089   0.000000  -0.000167   0.000000
   14  C  1 XZ   -0.000000  -0.000000  -0.000000  -0.000000   0.000000
   15  C  1 YZ   -0.000000  -0.000000  -0.000000  -0.000000   0.000000
   16  C  2  S    0.078058   0.000000   0.090287   0.000000  -0.316442
   17  C  2  S    0.001957   0.000000   0.002364   0.000000  -0.008917
   18  C  2  X   -0.000000   0.000167   0.000000  -0.000196   0.000000
   19  C  2  Y   -0.000127  -0.000000  -0.000101  -0.000000  -0.000029
   20  C  2  Z   -0.000000  -0.000000  -0.000000  -0.000000   0.000000
   21  C  2  S    0.002689   0.000000   0.005719   0.000000   0.004808
   22  C  2  X    0.000000  -0.001124  -0.000000   0.000497   0.000000
   23  C  2  Y    0.000570   0.000000   0.002261   0.000000   0.000469
   24  C  2  Z   -0.000000  -0.000000  -0.000000  -0.000000   0.000000
   25  C  2 XX   -0.000515  -0.000000  -0.000690  -0.000000   0.000531
   26  C  2 YY   -0.000406  -0.000000  -0.000592  -0.000000   0.000600
   27  C  2 ZZ   -0.000296  -0.000000  -0.000343  -0.000000   0.000731
   28  C  2 XY   -0.000000   0.000089   0.000000  -0.000167   0.000000
   29  C  2 XZ   -0.000000  -0.000000  -0.000000  -0.000000   0.000000
   30  C  2 YZ   -0.000000  -0.000000  -0.000000  -0.000000   0.000000
   31  C  3  S    0.029666  -0.030062   0.034001   0.034938   0.303424
   32  C  3  S    0.000750  -0.000801   0.000960   0.000943   0.008341
   33  C  3  X    0.000062  -0.000069   0.000085   0.000048  -0.000081
   34  C  3  Y   -0.000063   0.000070  -0.000054  -0.000043  -0.000002
   35  C  3  Z   -0.000000  -0.000000  -0.000000  -0.000000   0.000000
   36  C  3  S    0.001406  -0.001039   0.001469   0.003032  -0.002577
   37  C  3  X   -0.000737   0.000349  -0.000609  -0.000327   0.000424
   38  C  3  Y    0.000264  -0.000252   0.000437   0.001449  -0.000000
   39  C  3  Z   -0.000000  -0.000000  -0.000000  -0.000000   0.000000
   40  C  3 XX   -0.000269   0.000295  -0.000360  -0.000368  -0.000590
   41  C  3 YY   -0.000191   0.000187  -0.000292  -0.000266  -0.000638
   42  C  3 ZZ   -0.000137   0.000130  -0.000143  -0.000155  -0.000768
   43  C  3 XY    0.000074  -0.000071   0.000108   0.000094   0.000039
   44  C  3 XZ   -0.000000  -0.000000  -0.000000  -0.000000   0.000000
   45  C  3 YZ   -0.000000  -0.000000  -0.000000  -0.000000   0.000000
   46  C  4  S    0.029666   0.030062  -0.034001   0.034938   0.303424
   47  C  4  S    0.000750   0.000801  -0.000960   0.000943   0.008341
   48  C  4  X   -0.000062  -0.000069   0.000085  -0.000048   0.000081
   49  C  4  Y    0.000063   0.000070  -0.000054   0.000043   0.000002
   50  C  4  Z   -0.000000  -0.000000  -0.000000  -0.000000   0.000000
   51  C  4  S    0.001406   0.001039  -0.001469   0.003032  -0.002577
   52  C  4  X    0.000737   0.000349  -0.000609   0.000327  -0.000424
   53  C  4  Y   -0.000264  -0.000252   0.000437  -0.001449   0.000000
   54  C  4  Z   -0.000000  -0.000000  -0.000000  -0.000000   0.000000
   55  C  4 XX   -0.000269  -0.000295   0.000360  -0.000368  -0.000590
   56  C  4 YY   -0.000191  -0.000187   0.000292  -0.000266  -0.000638
   57  C  4 ZZ   -0.000137  -0.000130   0.000143  -0.000155  -0.000768
   58  C  4 XY    0.000074   0.000071  -0.000108   0.000094   0.000039
   59  C  4 XZ   -0.000000  -0.000000  -0.000000  -0.000000   0.000000
   60  C  4 YZ   -0.000000  -0.000000  -0.000000  -0.000000   0.000000
   61  C  5  S    0.029666  -0.030062  -0.034001  -0.034938   0.303424
   62  C  5  S    0.000750  -0.000801  -0.000960  -0.000943   0.008341
   63  C  5  X    0.000062  -0.000069  -0.000085  -0.000048  -0.000081
   64  C  5  Y    0.000063  -0.000070  -0.000054  -0.000043   0.000002
   65  C  5  Z   -0.000000  -0.000000  -0.000000  -0.000000   0.000000
   66  C  5  S    0.001406  -0.001039  -0.001469  -0.003032  -0.002577
   67  C  5  X   -0.000737   0.000349   0.000609   0.000327   0.000424
   68  C  5  Y   -0.000264   0.000252   0.000437   0.001449   0.000000
   69  C  5  Z   -0.000000  -0.000000  -0.000000  -0.000000   0.000000
   70  C  5 XX   -0.000269   0.000295   0.000360   0.000368  -0.000590
   71  C  5 YY   -0.000191   0.000187   0.000292   0.000266  -0.000638
   72  C  5 ZZ   -0.000137   0.000130   0.000143   0.000155  -0.000768
   73  C  5 XY   -0.000074   0.000071   0.000108   0.000094  -0.000039
   74  C  5 XZ   -0.000000  -0.000000  -0.000000  -0.000000   0.000000
   75  C  5 YZ   -0.000000  -0.000000  -0.000000  -0.000000   0.000000
   76  C  6  S    0.029666   0.030062   0.034001  -0.034938   0.303424
   77  C  6  S    0.000750   0.000801   0.000960  -0.000943   0.008341
   78  C  6  X   -0.000062  -0.000069  -0.000085   0.000048   0.000081
   79  C  6  Y   -0.000063  -0.000070  -0.000054   0.000043  -0.000002
   80  C  6  Z   -0.000000  -0.000000  -0.000000  -0.000000   0.000000
   81  C  6  S    0.001406   0.001039   0.001469  -0.003032  -0.002577
   82  C  6  X    0.000737   0.000349   0.000609  -0.000327  -0.000424
   83  C  6  Y    0.000264   0.000252   0.000437  -0.001449  -0.000000
   84  C  6  Z   -0.000000  -0.000000  -0.000000  -0.000000   0.000000
   85  C  6 XX   -0.000269  -0.000295  -0.000360   0.000368  -0.000590
   86  C  6 YY   -0.000191  -0.000187  -0.000292   0.000266  -0.000638
   87  C  6 ZZ   -0.000137  -0.000130  -0.000143   0.000155  -0.000768
   88  C  6 XY   -0.000074  -0.000071  -0.000108   0.000094  -0.000039
   89  C  6 XZ   -0.000000  -0.000000  -0.000000  -0.000000   0.000000
   90  C  6 YZ   -0.000000  -0.000000  -0.000000  -0.000000   0.000000
   91  C  7  S    0.493723   0.496809  -0.492623   0.496705   0.005576
   92  C  7  S    0.013667   0.013864  -0.013793   0.013930   0.000151
   93  C  7  X   -0.000047   0.000009  -0.000009  -0.000045   0.000135
   94  C  7  Y    0.000060   0.000012   0.000092  -0.000103   0.000022
   95  C  7  Z   -0.000000  -0.000000  -0.000000  -0.000000   0.000000
   96  C  7  S   -0.004861  -0.004458   0.011026  -0.009864  -0.000468
   97  C  7  X    0.000104  -0.000158   0.001354   0.001211  -0.001087
   98  C  7  Y   -0.000683  -0.000393  -0.001510   0.002084  -0.000165
   99  C  7  Z   -0.000000  -0.000000  -0.000000  -0.000000   0.000000
  100  C  7 XX   -0.000831  -0.000898   0.000527  -0.000620   0.000010
  101  C  7 YY   -0.001087  -0.001099   0.000478  -0.000522  -0.000004
  102  C  7 ZZ   -0.001210  -0.001184   0.001030  -0.001065  -0.000027
  103  C  7 XY    0.000019   0.000002  -0.000023   0.000020   0.000089
  104  C  7 XZ   -0.000000  -0.000000  -0.000000  -0.000000   0.000000
  105  C  7 YZ   -0.000000  -0.000000  -0.000000  -0.000000   0.000000
  106  C  8  S    0.493723  -0.496809   0.492622   0.496705   0.005576
  107  C  8  S    0.013667  -0.013864   0.013793   0.013930   0.000151
  108  C  8  X    0.000047   0.000009  -0.000009   0.000045  -0.000135
  109  C  8  Y   -0.000060   0.000012   0.000092   0.000103  -0.000022
  110  C  8  Z   -0.000000  -0.000000  -0.000000  -0.000000   0.000000
  111  C  8  S   -0.004861   0.004458  -0.011026  -0.009864  -0.000468
  112  C  8  X   -0.000104  -0.000158   0.001354  -0.001211   0.001087
  113  C  8  Y    0.000683  -0.000393  -0.001510  -0.002084   0.000165
  114  C  8  Z   -0.000000  -0.000000  -0.000000  -0.000000   0.000000
  115  C  8 XX   -0.000831   0.000898  -0.000527  -0.000620   0.000010
  116  C  8 YY   -0.001087   0.001099  -0.000478  -0.000522  -0.000004
  117  C  8 ZZ   -0.001210   0.001184  -0.001030  -0.001065  -0.000027
  118  C  8 XY    0.000019  -0.000002   0.000023   0.000020   0.000089
  119  C  8 XZ   -0.000000  -0.000000  -0.000000  -0.000000   0.000000
  120  C  8 YZ   -0.000000  -0.000000  -0.000000  -0.000000   0.000000
  121  C  9  S    0.001843  -0.001859   0.003159   0.003387   0.324819
  122  C  9  S   -0.000039   0.000031   0.000078   0.000134   0.008921
  123  C  9  X    0.000027  -0.000026  -0.000014  -0.000003   0.000018
  124  C  9  Y   -0.000014   0.000019   0.000006   0.000012   0.000028
  125  C  9  Z   -0.000000  -0.000000  -0.000000  -0.000000   0.000000
  126  C  9  S    0.000115   0.000072  -0.000605  -0.001774  -0.001821
  127  C  9  X   -0.000108   0.000079   0.000241   0.000878  -0.000109
  128  C  9  Y   -0.000032  -0.000055  -0.000349  -0.000422   0.000078
  129  C  9  Z   -0.000000  -0.000000  -0.000000  -0.000000   0.000000
  130  C  9 XX    0.000037  -0.000038   0.000058   0.000052  -0.000733
  131  C  9 YY    0.000005  -0.000004   0.000017   0.000014  -0.000791
  132  C  9 ZZ   -0.000035   0.000032   0.000010   0.000022  -0.000842
  133  C  9 XY    0.000007  -0.000010   0.000013   0.000006  -0.000000
  134  C  9 XZ   -0.000000  -0.000000  -0.000000  -0.000000   0.000000
  135  C  9 YZ   -0.000000  -0.000000  -0.000000  -0.000000   0.000000
  136  C 10  S    0.001843   0.001859  -0.003159   0.003387   0.324819
  137  C 10  S   -0.000039  -0.000031  -0.000078   0.000134   0.008921
  138  C 10  X   -0.000027  -0.000026  -0.000014   0.000003  -0.000018
  139  C 10  Y    0.000014   0.000019   0.000006  -0.000012  -0.000028
  140  C 10  Z   -0.000000  -0.000000  -0.000000  -0.000000   0.000000
  141  C 10  S    0.000115  -0.000072   0.000605  -0.001774  -0.001821
  142  C 10  X    0.000108   0.000079   0.000241  -0.000878   0.000109
  143  C 10  Y    0.000032  -0.000055  -0.000349   0.000422  -0.000078
  144  C 10  Z   -0.000000  -0.000000  -0.000000  -0.000000   0.000000
  145  C 10 XX    0.000037   0.000038  -0.000058   0.000052  -0.000733
  146  C 10 YY    0.000005   0.000004  -0.000017   0.000014  -0.000791
  147  C 10 ZZ   -0.000035  -0.000032  -0.000010   0.000022  -0.000842
  148  C 10 XY    0.000007   0.000010  -0.000013   0.000006  -0.000000
  149  C 10 XZ   -0.000000  -0.000000  -0.000000  -0.000000   0.000000
  150  C 10 YZ   -0.000000  -0.000000  -0.000000  -0.000000   0.000000
  151  C 11  S    0.001843  -0.001859  -0.003159  -0.003387   0.324819
  152  C 11  S   -0.000039   0.000031  -0.000078  -0.000134   0.008921
  153  C 11  X    0.000027  -0.000026   0.000014   0.000003   0.000018
  154  C 11  Y    0.000014  -0.000019   0.000006   0.000012  -0.000028
  155  C 11  Z   -0.000000  -0.000000  -0.000000  -0.000000   0.000000
  156  C 11  S    0.000115   0.000072   0.000605   0.001774  -0.001821
  157  C 11  X   -0.000108   0.000079  -0.000241  -0.000878  -0.000109
  158  C 11  Y    0.000032   0.000055  -0.000349  -0.000422  -0.000078
  159  C 11  Z   -0.000000  -0.000000  -0.000000  -0.000000   0.000000
  160  C 11 XX    0.000037  -0.000038  -0.000058  -0.000052  -0.000733
  161  C 11 YY    0.000005  -0.000004  -0.000017  -0.000014  -0.000791
  162  C 11 ZZ   -0.000035   0.000032  -0.000010  -0.000022  -0.000842
  163  C 11 XY   -0.000007   0.000010   0.000013   0.000006   0.000000
  164  C 11 XZ   -0.000000  -0.000000  -0.000000  -0.000000   0.000000
  165  C 11 YZ   -0.000000  -0.000000  -0.000000  -0.000000   0.000000
  166  C 12  S    0.001843   0.001859   0.003159  -0.003387   0.324819
  167  C 12  S   -0.000039  -0.000031   0.000078  -0.000134   0.008921
  168  C 12  X   -0.000027  -0.000026   0.000014  -0.000003  -0.000018
  169  C 12  Y   -0.000014  -0.000019   0.000006  -0.000012   0.000028
  170  C 12  Z   -0.000000  -0.000000  -0.000000  -0.000000   0.000000
  171  C 12  S    0.000115  -0.000072  -0.000605   0.001774  -0.001821
  172  C 12  X    0.000108   0.000079  -0.000241   0.000878   0.000109
  173  C 12  Y   -0.000032   0.000055  -0.000349   0.000422   0.000078
  174  C 12  Z   -0.000000  -0.000000  -0.000000  -0.000000   0.000000
  175  C 12 XX    0.000037   0.000038   0.000058  -0.000052  -0.000733
  176  C 12 YY    0.000005   0.000004   0.000017  -0.000014  -0.000791
  177  C 12 ZZ   -0.000035  -0.000032   0.000010  -0.000022  -0.000842
  178  C 12 XY   -0.000007  -0.000010  -0.000013   0.000006   0.000000
  179  C 12 XZ   -0.000000  -0.000000  -0.000000  -0.000000   0.000000
  180  C 12 YZ   -0.000000  -0.000000  -0.000000  -0.000000   0.000000
  181  C 13  S    0.493723  -0.496809  -0.492622  -0.496705   0.005576
  182  C 13  S    0.013667  -0.013864  -0.013793  -0.013930   0.000151
  183  C 13  X    0.000047   0.000009   0.000009  -0.000045  -0.000135
  184  C 13  Y    0.000060  -0.000012   0.000092   0.000103   0.000022
  185  C 13  Z   -0.000000  -0.000000  -0.000000  -0.000000   0.000000
  186  C 13  S   -0.004861   0.004458   0.011026   0.009864  -0.000468
  187  C 13  X   -0.000104  -0.000158  -0.001354   0.001211   0.001087
  188  C 13  Y   -0.000683   0.000393  -0.001510  -0.002084  -0.000165
  189  C 13  Z   -0.000000  -0.000000  -0.000000  -0.000000   0.000000
  190  C 13 XX   -0.000831   0.000898   0.000527   0.000620   0.000010
  191  C 13 YY   -0.001087   0.001099   0.000478   0.000522  -0.000004
  192  C 13 ZZ   -0.001210   0.001184   0.001030   0.001065  -0.000027
  193  C 13 XY   -0.000019   0.000002   0.000023   0.000020  -0.000089
  194  C 13 XZ   -0.000000  -0.000000  -0.000000  -0.000000   0.000000
  195  C 13 YZ   -0.000000  -0.000000  -0.000000  -0.000000   0.000000
  196  C 14  S    0.493723   0.496809   0.492623  -0.496705   0.005576
  197  C 14  S    0.013667   0.013864   0.013793  -0.013930   0.000151
  198  C 14  X   -0.000047   0.000009   0.000009   0.000045   0.000135
  199  C 14  Y   -0.000060  -0.000012   0.000092  -0.000103  -0.000022
  200  C 14  Z   -0.000000  -0.000000  -0.000000  -0.000000   0.000000
  201  C 14  S   -0.004861  -0.004458  -0.011026   0.009864  -0.000468
  202  C 14  X    0.000104  -0.000158  -0.001354  -0.001211  -0.001087
  203  C 14  Y    0.000683   0.000393  -0.001510   0.002084   0.000165
  204  C 14  Z   -0.000000  -0.000000  -0.000000  -0.000000   0.000000
  205  C 14 XX   -0.000831  -0.000898  -0.000527   0.000620   0.000010
  206  C 14 YY   -0.001087  -0.001099  -0.000478   0.000522  -0.000004
  207  C 14 ZZ   -0.001210  -0.001184  -0.001030   0.001065  -0.000027
  208  C 14 XY   -0.000019  -0.000002  -0.000023   0.000020  -0.000089
  209  C 14 XZ   -0.000000  -0.000000  -0.000000  -0.000000   0.000000
  210  C 14 YZ   -0.000000  -0.000000  -0.000000  -0.000000   0.000000
  211  H 15  S   -0.000047   0.000023   0.000041  -0.000004  -0.000053
  212  H 15  S    0.000021  -0.000014  -0.000001  -0.000244   0.000622
  213  H 16  S   -0.000047  -0.000023  -0.000041  -0.000004  -0.000053
  214  H 16  S    0.000021   0.000014   0.000001  -0.000244   0.000622
  215  H 17  S   -0.000065  -0.000000   0.000035  -0.000000   0.000004
  216  H 17  S    0.000027  -0.000000  -0.000298  -0.000000  -0.000638
  217  H 18  S   -0.000065  -0.000000  -0.000035  -0.000000   0.000004
  218  H 18  S    0.000027  -0.000000   0.000298   0.000000  -0.000638
  219  H 19  S   -0.000047   0.000023  -0.000041   0.000004  -0.000053
  220  H 19  S    0.000021  -0.000014   0.000001   0.000244   0.000622
  221  H 20  S   -0.000047  -0.000023   0.000041   0.000004  -0.000053
  222  H 20  S    0.000021   0.000014  -0.000001   0.000244   0.000622
  223  H 21  S   -0.000001  -0.000010  -0.000017  -0.000026  -0.000087
  224  H 21  S    0.000079  -0.000089  -0.000063  -0.000181   0.000571
  225  H 22  S   -0.000001   0.000010   0.000017  -0.000026  -0.000087
  226  H 22  S    0.000079   0.000089   0.000063  -0.000181   0.000571
  227  H 23  S   -0.000001  -0.000010   0.000017   0.000026  -0.000087
  228  H 23  S    0.000079  -0.000089   0.000063   0.000181   0.000571
  229  H 24  S   -0.000001   0.000010  -0.000017   0.000026  -0.000087
  230  H 24  S    0.000079   0.000089  -0.000063   0.000181   0.000571

                      6          7          8          9         10
                  -11.2369   -11.2369   -11.2368   -11.2366   -11.2365
                     A          A          A          A          A   
    1  C  1  S   -0.000000  -0.685203   0.623716   0.000000  -0.133985
    2  C  1  S   -0.000000  -0.019189   0.017360   0.000000  -0.003866
    3  C  1  X    0.000005   0.000000  -0.000000  -0.000027  -0.000000
    4  C  1  Y    0.000000   0.000220  -0.000178  -0.000000   0.000090
    5  C  1  Z    0.000000   0.000000  -0.000000  -0.000000  -0.000000
    6  C  1  S    0.000000   0.010368  -0.009067   0.000000   0.006006
    7  C  1  X   -0.000647   0.000000   0.000000   0.001207  -0.000000
    8  C  1  Y   -0.000000  -0.002509   0.001500  -0.000000  -0.003396
    9  C  1  Z    0.000000   0.000000  -0.000000  -0.000000  -0.000000
   10  C  1 XX    0.000000   0.000913  -0.000849  -0.000000   0.000043
   11  C  1 YY    0.000000   0.001191  -0.001107  -0.000000   0.000201
   12  C  1 ZZ    0.000000   0.001560  -0.001479  -0.000000   0.000259
   13  C  1 XY    0.000029   0.000000  -0.000000  -0.000016  -0.000000
   14  C  1 XZ    0.000000   0.000000  -0.000000  -0.000000  -0.000000
   15  C  1 YZ    0.000000   0.000000  -0.000000  -0.000000  -0.000000
   16  C  2  S    0.000000   0.685203   0.623716  -0.000000   0.133985
   17  C  2  S    0.000000   0.019189   0.017360  -0.000000   0.003866
   18  C  2  X    0.000005   0.000000  -0.000000   0.000027  -0.000000
   19  C  2  Y    0.000000   0.000220   0.000178  -0.000000   0.000090
   20  C  2  Z    0.000000   0.000000  -0.000000  -0.000000  -0.000000
   21  C  2  S   -0.000000  -0.010368  -0.009067   0.000000  -0.006006
   22  C  2  X   -0.000647   0.000000  -0.000000  -0.001207   0.000000
   23  C  2  Y   -0.000000  -0.002509  -0.001500  -0.000000  -0.003396
   24  C  2  Z    0.000000   0.000000  -0.000000  -0.000000  -0.000000
   25  C  2 XX   -0.000000  -0.000913  -0.000849   0.000000  -0.000043
   26  C  2 YY   -0.000000  -0.001191  -0.001107   0.000000  -0.000201
   27  C  2 ZZ   -0.000000  -0.001560  -0.001479   0.000000  -0.000259
   28  C  2 XY   -0.000029   0.000000  -0.000000  -0.000016  -0.000000
   29  C  2 XZ    0.000000   0.000000  -0.000000  -0.000000  -0.000000
   30  C  2 YZ    0.000000   0.000000  -0.000000  -0.000000  -0.000000
   31  C  3  S   -0.333414  -0.090854   0.138072  -0.433794   0.424128
   32  C  3  S   -0.009132  -0.002511   0.003691  -0.012062   0.011778
   33  C  3  X    0.000105   0.000031  -0.000048   0.000107  -0.000123
   34  C  3  Y   -0.000020   0.000024   0.000043  -0.000102   0.000118
   35  C  3  Z    0.000000   0.000000  -0.000000  -0.000000  -0.000000
   36  C  3  S    0.002822  -0.000233  -0.001017   0.005006  -0.003916
   37  C  3  X   -0.000595  -0.000467   0.000193   0.000040  -0.000246
   38  C  3  Y    0.000083  -0.001122  -0.000021   0.001045  -0.000551
   39  C  3  Z    0.000000   0.000000  -0.000000  -0.000000  -0.000000
   40  C  3 XX    0.000604   0.000286  -0.000180   0.000727  -0.000688
   41  C  3 YY    0.000683   0.000220  -0.000243   0.000864  -0.000814
   42  C  3 ZZ    0.000842   0.000241  -0.000364   0.001028  -0.001001
   43  C  3 XY   -0.000037  -0.000017  -0.000010  -0.000012   0.000003
   44  C  3 XZ    0.000000   0.000000  -0.000000  -0.000000  -0.000000
   45  C  3 YZ    0.000000   0.000000  -0.000000  -0.000000  -0.000000
   46  C  4  S    0.333414   0.090854   0.138072  -0.433794  -0.424128
   47  C  4  S    0.009132   0.002511   0.003691  -0.012062  -0.011778
   48  C  4  X    0.000105   0.000031   0.000048  -0.000107  -0.000123
   49  C  4  Y   -0.000020   0.000024  -0.000043   0.000102   0.000118
   50  C  4  Z    0.000000   0.000000  -0.000000  -0.000000  -0.000000
   51  C  4  S   -0.002822   0.000233  -0.001017   0.005006   0.003916
   52  C  4  X   -0.000595  -0.000467  -0.000193  -0.000040  -0.000246
   53  C  4  Y    0.000083  -0.001122   0.000021  -0.001045  -0.000551
   54  C  4  Z    0.000000   0.000000  -0.000000  -0.000000  -0.000000
   55  C  4 XX   -0.000604  -0.000286  -0.000180   0.000727   0.000688
   56  C  4 YY   -0.000683  -0.000220  -0.000243   0.000864   0.000814
   57  C  4 ZZ   -0.000842  -0.000241  -0.000364   0.001028   0.001001
   58  C  4 XY    0.000037   0.000017  -0.000010  -0.000012  -0.000003
   59  C  4 XZ    0.000000   0.000000  -0.000000  -0.000000  -0.000000
   60  C  4 YZ    0.000000   0.000000  -0.000000  -0.000000  -0.000000
   61  C  5  S   -0.333414   0.090854   0.138072   0.433794  -0.424128
   62  C  5  S   -0.009132   0.002511   0.003691   0.012062  -0.011778
   63  C  5  X    0.000105  -0.000031  -0.000048  -0.000107   0.000123
   64  C  5  Y    0.000020   0.000024  -0.000043  -0.000102   0.000118
   65  C  5  Z    0.000000   0.000000  -0.000000  -0.000000  -0.000000
   66  C  5  S    0.002822   0.000233  -0.001017  -0.005006   0.003916
   67  C  5  X   -0.000595   0.000467   0.000193  -0.000040   0.000246
   68  C  5  Y   -0.000083  -0.001122   0.000021   0.001045  -0.000551
   69  C  5  Z    0.000000   0.000000  -0.000000  -0.000000  -0.000000
   70  C  5 XX    0.000604  -0.000286  -0.000180  -0.000727   0.000688
   71  C  5 YY    0.000683  -0.000220  -0.000243  -0.000864   0.000814
   72  C  5 ZZ    0.000842  -0.000241  -0.000364  -0.001028   0.001001
   73  C  5 XY    0.000037  -0.000017   0.000010  -0.000012   0.000003
   74  C  5 XZ    0.000000   0.000000  -0.000000  -0.000000  -0.000000
   75  C  5 YZ    0.000000   0.000000  -0.000000  -0.000000  -0.000000
   76  C  6  S    0.333414  -0.090854   0.138072   0.433794   0.424128
   77  C  6  S    0.009132  -0.002511   0.003691   0.012062   0.011778
   78  C  6  X    0.000105  -0.000031   0.000048   0.000107   0.000123
   79  C  6  Y    0.000020   0.000024   0.000043   0.000102   0.000118
   80  C  6  Z    0.000000   0.000000  -0.000000  -0.000000  -0.000000
   81  C  6  S   -0.002822  -0.000233  -0.001017  -0.005006  -0.003916
   82  C  6  X   -0.000595   0.000467  -0.000193   0.000040   0.000246
   83  C  6  Y   -0.000083  -0.001122  -0.000021  -0.001045  -0.000551
   84  C  6  Z    0.000000   0.000000  -0.000000  -0.000000  -0.000000
   85  C  6 XX   -0.000604   0.000286  -0.000180  -0.000727  -0.000688
   86  C  6 YY   -0.000683   0.000220  -0.000243  -0.000864  -0.000814
   87  C  6 ZZ   -0.000842   0.000241  -0.000364  -0.001028  -0.001001
[...]
  104  C  7 XZ    0.005023  -0.012074  -0.006030   0.000000   0.000000 
  105  C  7 YZ    0.007832   0.012945   0.009285   0.000000   0.000000 
  106  C  8  S    0.000000   0.000000   0.000000   0.000000   0.000000 
  107  C  8  S    0.000000   0.000000   0.000000   0.000000   0.000000 
  108  C  8  X    0.000000   0.000000   0.000000   0.000000   0.000000 
  109  C  8  Y    0.000000   0.000000   0.000000   0.000000   0.000000 
  110  C  8  Z    0.000000   0.000000   0.000000  -0.308984   0.210711 
  111  C  8  S    0.000000   0.000000   0.000000   0.000000   0.000000 
  112  C  8  X    0.000000   0.000000   0.000000   0.000000   0.000000 
  113  C  8  Y    0.000000   0.000000   0.000000   0.000000   0.000000 
  114  C  8  Z    0.000000   0.000000   0.000000  -0.229268   0.183532 
  115  C  8 XX    0.000000   0.000000   0.000000   0.000000   0.000000 
  116  C  8 YY    0.000000   0.000000   0.000000   0.000000   0.000000 
  117  C  8 ZZ    0.000000   0.000000   0.000000   0.000000   0.000000 
  118  C  8 XY    0.000000   0.000000   0.000000   0.000000   0.000000 
  119  C  8 XZ    0.000000   0.000000   0.000000   0.008838  -0.014860 
  120  C  8 YZ    0.000000   0.000000   0.000000  -0.006121  -0.017596 
  121  C  9  S    0.000000   0.000000   0.000000   0.000000   0.000000 
  122  C  9  S    0.000000   0.000000   0.000000   0.000000   0.000000 
  123  C  9  X    0.000000   0.000000   0.000000   0.000000   0.000000 
  124  C  9  Y    0.000000   0.000000   0.000000   0.000000   0.000000 
  125  C  9  Z    0.000000   0.000000   0.000000   0.000000   0.000000 
  126  C  9  S    0.000000   0.000000   0.000000   0.000000   0.000000 
  127  C  9  X    0.000000   0.000000   0.000000   0.000000   0.000000 
  128  C  9  Y    0.000000   0.000000   0.000000   0.000000   0.000000 
  129  C  9  Z    0.000000   0.000000   0.000000   0.000000   0.000000 
  130  C  9 XX    0.000000   0.000000   0.000000   0.000000   0.000000 
  131  C  9 YY    0.000000   0.000000   0.000000   0.000000   0.000000 
  132  C  9 ZZ    0.000000   0.000000   0.000000   0.000000   0.000000 
  133  C  9 XY    0.000000   0.000000   0.000000   0.000000   0.000000 
  134  C  9 XZ    0.000000   0.000000   0.000000   0.000000   0.000000 
  135  C  9 YZ    0.000000   0.000000   0.000000   0.000000   0.000000 
  136  C 10  S    0.000000   0.000000   0.000000   0.000000   0.000000 
  137  C 10  S    0.000000   0.000000   0.000000   0.000000   0.000000 
  138  C 10  X    0.000000   0.000000   0.000000   0.000000   0.000000 
  139  C 10  Y    0.000000   0.000000   0.000000   0.000000   0.000000 
  140  C 10  Z   -0.107024   0.175812   0.316635   0.000000   0.000000 
  141  C 10  S    0.000000   0.000000   0.000000   0.000000   0.000000 
  142  C 10  X    0.000000   0.000000   0.000000   0.000000   0.000000 
  143  C 10  Y    0.000000   0.000000   0.000000   0.000000   0.000000 
  144  C 10  Z   -0.051487   0.148110   0.253768   0.000000   0.000000 
  145  C 10 XX    0.000000   0.000000   0.000000   0.000000   0.000000 
  146  C 10 YY    0.000000   0.000000   0.000000   0.000000   0.000000 
  147  C 10 ZZ    0.000000   0.000000   0.000000   0.000000   0.000000 
  148  C 10 XY    0.000000   0.000000   0.000000   0.000000   0.000000 
  149  C 10 XZ   -0.009468   0.014364   0.006251   0.000000   0.000000 
  150  C 10 YZ    0.000216   0.015361  -0.011516   0.000000   0.000000 
  151  C 11  S    0.000000   0.000000   0.000000   0.000000   0.000000 
  152  C 11  S    0.000000   0.000000   0.000000   0.000000   0.000000 
  153  C 11  X    0.000000   0.000000   0.000000   0.000000   0.000000 
  154  C 11  Y    0.000000   0.000000   0.000000   0.000000   0.000000 
  155  C 11  Z    0.000000   0.000000   0.000000   0.000000   0.000000 
  156  C 11  S    0.000000   0.000000   0.000000   0.000000   0.000000 
  157  C 11  X    0.000000   0.000000   0.000000   0.000000   0.000000 
  158  C 11  Y    0.000000   0.000000   0.000000   0.000000   0.000000 
  159  C 11  Z    0.000000   0.000000   0.000000   0.000000   0.000000 
  160  C 11 XX    0.000000   0.000000   0.000000   0.000000   0.000000 
  161  C 11 YY    0.000000   0.000000   0.000000   0.000000   0.000000 
  162  C 11 ZZ    0.000000   0.000000   0.000000   0.000000   0.000000 
  163  C 11 XY    0.000000   0.000000   0.000000   0.000000   0.000000 
  164  C 11 XZ    0.000000   0.000000   0.000000   0.000000   0.000000 
  165  C 11 YZ    0.000000   0.000000   0.000000   0.000000   0.000000 
  166  C 12  S    0.000000   0.000000   0.000000   0.000000   0.000000 
  167  C 12  S    0.000000   0.000000   0.000000   0.000000   0.000000 
  168  C 12  X    0.000000   0.000000   0.000000   0.000000   0.000000 
  169  C 12  Y    0.000000   0.000000   0.000000   0.000000   0.000000 
  170  C 12  Z   -0.107024  -0.175812   0.316635   0.000000   0.000000 
  171  C 12  S    0.000000   0.000000   0.000000   0.000000   0.000000 
  172  C 12  X    0.000000   0.000000   0.000000   0.000000   0.000000 
  173  C 12  Y    0.000000   0.000000   0.000000   0.000000   0.000000 
  174  C 12  Z   -0.051487  -0.148110   0.253768   0.000000   0.000000 
  175  C 12 XX    0.000000   0.000000   0.000000   0.000000   0.000000 
  176  C 12 YY    0.000000   0.000000   0.000000   0.000000   0.000000 
  177  C 12 ZZ    0.000000   0.000000   0.000000   0.000000   0.000000 
  178  C 12 XY    0.000000   0.000000   0.000000   0.000000   0.000000 
  179  C 12 XZ   -0.009468  -0.014364   0.006251   0.000000   0.000000 
  180  C 12 YZ   -0.000216   0.015361   0.011516   0.000000   0.000000 
  181  C 13  S    0.000000   0.000000   0.000000   0.000000   0.000000 
  182  C 13  S    0.000000   0.000000   0.000000   0.000000   0.000000 
  183  C 13  X    0.000000   0.000000   0.000000   0.000000   0.000000 
  184  C 13  Y    0.000000   0.000000   0.000000   0.000000   0.000000 
  185  C 13  Z    0.000000   0.000000   0.000000  -0.308984  -0.210711 
  186  C 13  S    0.000000   0.000000   0.000000   0.000000   0.000000 
  187  C 13  X    0.000000   0.000000   0.000000   0.000000   0.000000 
  188  C 13  Y    0.000000   0.000000   0.000000   0.000000   0.000000 
  189  C 13  Z    0.000000   0.000000   0.000000  -0.229268  -0.183532 
  190  C 13 XX    0.000000   0.000000   0.000000   0.000000   0.000000 
  191  C 13 YY    0.000000   0.000000   0.000000   0.000000   0.000000 
  192  C 13 ZZ    0.000000   0.000000   0.000000   0.000000   0.000000 
  193  C 13 XY    0.000000   0.000000   0.000000   0.000000   0.000000 
  194  C 13 XZ    0.000000   0.000000   0.000000   0.008838   0.014860 
  195  C 13 YZ    0.000000   0.000000   0.000000   0.006121  -0.017596 
  196  C 14  S    0.000000   0.000000   0.000000   0.000000   0.000000 
  197  C 14  S    0.000000   0.000000   0.000000   0.000000   0.000000 
  198  C 14  X    0.000000   0.000000   0.000000   0.000000   0.000000 
  199  C 14  Y    0.000000   0.000000   0.000000   0.000000   0.000000 
  200  C 14  Z   -0.290342  -0.137881  -0.190786   0.000000   0.000000 
  201  C 14  S    0.000000   0.000000   0.000000   0.000000   0.000000 
  202  C 14  X    0.000000   0.000000   0.000000   0.000000   0.000000 
  203  C 14  Y    0.000000   0.000000   0.000000   0.000000   0.000000 
  204  C 14  Z   -0.220083  -0.109456  -0.185895   0.000000   0.000000 
  205  C 14 XX    0.000000   0.000000   0.000000   0.000000   0.000000 
  206  C 14 YY    0.000000   0.000000   0.000000   0.000000   0.000000 
  207  C 14 ZZ    0.000000   0.000000   0.000000   0.000000   0.000000 
  208  C 14 XY    0.000000   0.000000   0.000000   0.000000   0.000000 
  209  C 14 XZ    0.005023   0.012074  -0.006030   0.000000   0.000000 
  210  C 14 YZ   -0.007832   0.012945  -0.009285   0.000000   0.000000 
  211  H 15  S    0.000000   0.000000   0.000000   0.000000   0.000000 
  212  H 15  S    0.000000   0.000000   0.000000   0.000000   0.000000 
  213  H 16  S    0.000000   0.000000   0.000000   0.000000   0.000000 
  214  H 16  S    0.000000   0.000000   0.000000   0.000000   0.000000 
  215  H 17  S    0.000000   0.000000   0.000000   0.000000   0.000000 
  216  H 17  S    0.000000   0.000000   0.000000   0.000000   0.000000 
  217  H 18  S    0.000000   0.000000   0.000000   0.000000   0.000000 
  218  H 18  S    0.000000   0.000000   0.000000   0.000000   0.000000 
  219  H 19  S    0.000000   0.000000   0.000000   0.000000   0.000000 
  220  H 19  S    0.000000   0.000000   0.000000   0.000000   0.000000 
  221  H 20  S    0.000000   0.000000   0.000000   0.000000   0.000000 
  222  H 20  S    0.000000   0.000000   0.000000   0.000000   0.000000 
  223  H 21  S    0.000000   0.000000   0.000000   0.000000   0.000000 
  224  H 21  S    0.000000   0.000000   0.000000   0.000000   0.000000 
  225  H 22  S    0.000000   0.000000   0.000000   0.000000   0.000000 
  226  H 22  S    0.000000   0.000000   0.000000   0.000000   0.000000 
  227  H 23  S    0.000000   0.000000   0.000000   0.000000   0.000000 
  228  H 23  S    0.000000   0.000000   0.000000   0.000000   0.000000 
  229  H 24  S    0.000000   0.000000   0.000000   0.000000   0.000000 
  230  H 24  S    0.000000   0.000000   0.000000   0.000000   0.000000 

                     46         47 
                     46.0       47.0 
                     Loc46      Loc47      
    1  C  1  S    0.000000   0.000000 
    2  C  1  S    0.000000   0.000000 
    3  C  1  X    0.000000   0.000000 
    4  C  1  Y    0.000000   0.000000 
    5  C  1  Z    0.000000   0.000000 
    6  C  1  S    0.000000   0.000000 
    7  C  1  X    0.000000   0.000000 
    8  C  1  Y    0.000000   0.000000 
    9  C  1  Z    0.000000   0.000000 
   10  C  1 XX    0.000000   0.000000 
   11  C  1 YY    0.000000   0.000000 
   12  C  1 ZZ    0.000000   0.000000 
   13  C  1 XY    0.000000   0.000000 
   14  C  1 XZ    0.000000   0.000000 
   15  C  1 YZ    0.000000   0.000000 
   16  C  2  S    0.000000   0.000000 
   17  C  2  S    0.000000   0.000000 
   18  C  2  X    0.000000   0.000000 
   19  C  2  Y    0.000000   0.000000 
   20  C  2  Z    0.000000   0.000000 
   21  C  2  S    0.000000   0.000000 
   22  C  2  X    0.000000   0.000000 
   23  C  2  Y    0.000000   0.000000 
   24  C  2  Z    0.000000   0.000000 
   25  C  2 XX    0.000000   0.000000 
   26  C  2 YY    0.000000   0.000000 
   27  C  2 ZZ    0.000000   0.000000 
   28  C  2 XY    0.000000   0.000000 
   29  C  2 XZ    0.000000   0.000000 
   30  C  2 YZ    0.000000   0.000000 
   31  C  3  S    0.000000   0.000000 
   32  C  3  S    0.000000   0.000000 
   33  C  3  X    0.000000   0.000000 
   34  C  3  Y    0.000000   0.000000 
   35  C  3  Z   -0.209152  -0.315620 
   36  C  3  S    0.000000   0.000000 
   37  C  3  X    0.000000   0.000000 
   38  C  3  Y    0.000000   0.000000 
   39  C  3  Z   -0.154858  -0.285203 
   40  C  3 XX    0.000000   0.000000 
   41  C  3 YY    0.000000   0.000000 
   42  C  3 ZZ    0.000000   0.000000 
   43  C  3 XY    0.000000   0.000000 
   44  C  3 XZ   -0.014286  -0.011072 
   45  C  3 YZ   -0.011011  -0.010063 
   46  C  4  S    0.000000   0.000000 
   47  C  4  S    0.000000   0.000000 
   48  C  4  X    0.000000   0.000000 
   49  C  4  Y    0.000000   0.000000 
   50  C  4  Z    0.000000   0.000000 
   51  C  4  S    0.000000   0.000000 
   52  C  4  X    0.000000   0.000000 
   53  C  4  Y    0.000000   0.000000 
   54  C  4  Z    0.000000   0.000000 
   55  C  4 XX    0.000000   0.000000 
   56  C  4 YY    0.000000   0.000000 
   57  C  4 ZZ    0.000000   0.000000 
   58  C  4 XY    0.000000   0.000000 
   59  C  4 XZ    0.000000   0.000000 
   60  C  4 YZ    0.000000   0.000000 
   61  C  5  S    0.000000   0.000000 
   62  C  5  S    0.000000   0.000000 
   63  C  5  X    0.000000   0.000000 
   64  C  5  Y    0.000000   0.000000 
   65  C  5  Z   -0.209152   0.315620 
   66  C  5  S    0.000000   0.000000 
   67  C  5  X    0.000000   0.000000 
   68  C  5  Y    0.000000   0.000000 
   69  C  5  Z   -0.154858   0.285203 
   70  C  5 XX    0.000000   0.000000 
   71  C  5 YY    0.000000   0.000000 
   72  C  5 ZZ    0.000000   0.000000 
   73  C  5 XY    0.000000   0.000000 
   74  C  5 XZ   -0.014286   0.011072 
   75  C  5 YZ    0.011011  -0.010063 
   76  C  6  S    0.000000   0.000000 
   77  C  6  S    0.000000   0.000000 
   78  C  6  X    0.000000   0.000000 
   79  C  6  Y    0.000000   0.000000 
   80  C  6  Z    0.000000   0.000000 
   81  C  6  S    0.000000   0.000000 
   82  C  6  X    0.000000   0.000000 
   83  C  6  Y    0.000000   0.000000 
   84  C  6  Z    0.000000   0.000000 
   85  C  6 XX    0.000000   0.000000 
   86  C  6 YY    0.000000   0.000000 
   87  C  6 ZZ    0.000000   0.000000 
   88  C  6 XY    0.000000   0.000000 
   89  C  6 XZ    0.000000   0.000000 
   90  C  6 YZ    0.000000   0.000000 
   91  C  7  S    0.000000   0.000000 
   92  C  7  S    0.000000   0.000000 
   93  C  7  X    0.000000   0.000000 
   94  C  7  Y    0.000000   0.000000 
   95  C  7  Z    0.000000   0.000000 
   96  C  7  S    0.000000   0.000000 
   97  C  7  X    0.000000   0.000000 
   98  C  7  Y    0.000000   0.000000 
   99  C  7  Z    0.000000   0.000000 
  100  C  7 XX    0.000000   0.000000 
  101  C  7 YY    0.000000   0.000000 
  102  C  7 ZZ    0.000000   0.000000 
  103  C  7 XY    0.000000   0.000000 
  104  C  7 XZ    0.000000   0.000000 
  105  C  7 YZ    0.000000   0.000000 
  106  C  8  S    0.000000   0.000000 
  107  C  8  S    0.000000   0.000000 
  108  C  8  X    0.000000   0.000000 
  109  C  8  Y    0.000000   0.000000 
  110  C  8  Z    0.000000   0.000000 
  111  C  8  S    0.000000   0.000000 
  112  C  8  X    0.000000   0.000000 
  113  C  8  Y    0.000000   0.000000 
  114  C  8  Z    0.000000   0.000000 
  115  C  8 XX    0.000000   0.000000 
  116  C  8 YY    0.000000   0.000000 
  117  C  8 ZZ    0.000000   0.000000 
  118  C  8 XY    0.000000   0.000000 
  119  C  8 XZ    0.000000   0.000000 
  120  C  8 YZ    0.000000   0.000000 
  121  C  9  S    0.000000   0.000000 
  122  C  9  S    0.000000   0.000000 
  123  C  9  X    0.000000   0.000000 
  124  C  9  Y    0.000000   0.000000 
  125  C  9  Z   -0.302062  -0.225507 
  126  C  9  S    0.000000   0.000000 
  127  C  9  X    0.000000   0.000000 
  128  C  9  Y    0.000000   0.000000 
  129  C  9  Z   -0.214504  -0.212658 
  130  C  9 XX    0.000000   0.000000 
  131  C  9 YY    0.000000   0.000000 
  132  C  9 ZZ    0.000000   0.000000 
  133  C  9 XY    0.000000   0.000000 
  134  C  9 XZ    0.013318   0.016145 
  135  C  9 YZ   -0.006648   0.017810 
  136  C 10  S    0.000000   0.000000 
  137  C 10  S    0.000000   0.000000 
  138  C 10  X    0.000000   0.000000 
  139  C 10  Y    0.000000   0.000000 
  140  C 10  Z    0.000000   0.000000 
  141  C 10  S    0.000000   0.000000 
  142  C 10  X    0.000000   0.000000 
  143  C 10  Y    0.000000   0.000000 
  144  C 10  Z    0.000000   0.000000 
  145  C 10 XX    0.000000   0.000000 
  146  C 10 YY    0.000000   0.000000 
  147  C 10 ZZ    0.000000   0.000000 
  148  C 10 XY    0.000000   0.000000 
  149  C 10 XZ    0.000000   0.000000 
  150  C 10 YZ    0.000000   0.000000 
  151  C 11  S    0.000000   0.000000 
  152  C 11  S    0.000000   0.000000 
  153  C 11  X    0.000000   0.000000 
  154  C 11  Y    0.000000   0.000000 
  155  C 11  Z   -0.302062   0.225507 
  156  C 11  S    0.000000   0.000000 
  157  C 11  X    0.000000   0.000000 
  158  C 11  Y    0.000000   0.000000 
  159  C 11  Z   -0.214504   0.212658 
  160  C 11 XX    0.000000   0.000000 
  161  C 11 YY    0.000000   0.000000 
  162  C 11 ZZ    0.000000   0.000000 
  163  C 11 XY    0.000000   0.000000 
  164  C 11 XZ    0.013318  -0.016145 
  165  C 11 YZ    0.006648   0.017810 
  166  C 12  S    0.000000   0.000000 
  167  C 12  S    0.000000   0.000000 
  168  C 12  X    0.000000   0.000000 
  169  C 12  Y    0.000000   0.000000 
  170  C 12  Z    0.000000   0.000000 
  171  C 12  S    0.000000   0.000000 
  172  C 12  X    0.000000   0.000000 
  173  C 12  Y    0.000000   0.000000 
  174  C 12  Z    0.000000   0.000000 
  175  C 12 XX    0.000000   0.000000 
  176  C 12 YY    0.000000   0.000000 
  177  C 12 ZZ    0.000000   0.000000 
  178  C 12 XY    0.000000   0.000000 
  179  C 12 XZ    0.000000   0.000000 
  180  C 12 YZ    0.000000   0.000000 
  181  C 13  S    0.000000   0.000000 
  182  C 13  S    0.000000   0.000000 
  183  C 13  X    0.000000   0.000000 
  184  C 13  Y    0.000000   0.000000 
  185  C 13  Z    0.000000   0.000000 
  186  C 13  S    0.000000   0.000000 
  187  C 13  X    0.000000   0.000000 
  188  C 13  Y    0.000000   0.000000 
  189  C 13  Z    0.000000   0.000000 
  190  C 13 XX    0.000000   0.000000 
  191  C 13 YY    0.000000   0.000000 
  192  C 13 ZZ    0.000000   0.000000 
  193  C 13 XY    0.000000   0.000000 
  194  C 13 XZ    0.000000   0.000000 
  195  C 13 YZ    0.000000   0.000000 
  196  C 14  S    0.000000   0.000000 
  197  C 14  S    0.000000   0.000000 
  198  C 14  X    0.000000   0.000000 
  199  C 14  Y    0.000000   0.000000 
  200  C 14  Z    0.000000   0.000000 
  201  C 14  S    0.000000   0.000000 
  202  C 14  X    0.000000   0.000000 
  203  C 14  Y    0.000000   0.000000 
  204  C 14  Z    0.000000   0.000000 
  205  C 14 XX    0.000000   0.000000 
  206  C 14 YY    0.000000   0.000000 
  207  C 14 ZZ    0.000000   0.000000 
  208  C 14 XY    0.000000   0.000000 
  209  C 14 XZ    0.000000   0.000000 
  210  C 14 YZ    0.000000   0.000000 
  211  H 15  S    0.000000   0.000000 
  212  H 15  S    0.000000   0.000000 
  213  H 16  S    0.000000   0.000000 
  214  H 16  S    0.000000   0.000000 
  215  H 17  S    0.000000   0.000000 
  216  H 17  S    0.000000   0.000000 
  217  H 18  S    0.000000   0.000000 
  218  H 18  S    0.000000   0.000000 
  219  H 19  S    0.000000   0.000000 
  220  H 19  S    0.000000   0.000000 
  221  H 20  S    0.000000   0.000000 
  222  H 20  S    0.000000   0.000000 
  223  H 21  S    0.000000   0.000000 
  224  H 21  S    0.000000   0.000000 
  225  H 22  S    0.000000   0.000000 
  226  H 22  S    0.000000   0.000000 
  227  H 23  S    0.000000   0.000000 
  228  H 23  S    0.000000   0.000000 
  229  H 24  S    0.000000   0.000000 
  230  H 24  S    0.000000   0.000000 

 STEP CPU TIME =     0.09 TOTAL CPU TIME =       63.1 (    1.1 MIN)
 TOTAL WALL CLOCK TIME=       63.3 SECONDS, CPU UTILIZATION IS  99.72%
              1167142  WORDS OF DYNAMIC MEMORY USED
 EXECUTION OF GAMESS TERMINATED NORMALLY Tue Jan 28 14:28:52 2025
 DDI: 263624 bytes (0.3 MB / 0 MWords) used by master data server.

 ----------------------------------------
 CPU timing information for all processes
 ========================================
 0: 60.136 + 3.16 = 63.152
 ----------------------------------------
 ddikick.x: exited gracefully.
----- accounting info -----
Files used on the master node armilia were:
-rw-r--r-- 1 barrois users     176694 Jan 28 14:27 /scratch/barrois.272350/anthracene_HF_MC.F05
-rw-r--r-- 1 barrois users 1018170496 Jan 28 14:28 /scratch/barrois.272350/anthracene_HF_MC.F08
-rw-r--r-- 1 barrois users     392544 Jan 28 14:28 /scratch/barrois.272350/anthracene_HF_MC.F09
-rw-r--r-- 1 barrois users    7362000 Jan 28 14:28 /scratch/barrois.272350/anthracene_HF_MC.F10
-rw-r--r-- 1 barrois users     276000 Jan 28 14:28 /scratch/barrois.272350/anthracene_HF_MC.F11
-rw-r--r-- 1 barrois users        200 Jan 28 14:28 /scratch/barrois.272350/anthracene_HF_MC.F12
-rw-r--r-- 1 barrois users    2865776 Jan 28 14:28 /scratch/barrois.272350/anthracene_HF_MC.F13
-rw-r--r-- 1 barrois users     400008 Jan 28 14:28 /scratch/barrois.272350/anthracene_HF_MC.F14
-rw-r--r-- 1 barrois users     189048 Jan 28 14:28 /scratch/barrois.272350/anthracene_HF_MC.F15
-rw-r--r-- 1 barrois users     189048 Jan 28 14:28 /scratch/barrois.272350/anthracene_HF_MC.F16
-rw-r--r-- 1 barrois users          0 Jan 28 14:28 /scratch/barrois.272350/anthracene_HF_MC.F23
Tue Jan 28 02:28:55 PM CET 2025
0.0u 0.1s 1:06.66 0.2% 0+0k 352+904io 0pf+0w
