----- GAMESS execution script 'rungms' -----
This job is running on host muhka
under operating system Linux at Wed Jan 29 04:23:26 PM CET 2025
Available scratch disk space (Kbyte units) at beginning of the job is
Filesystem                        1K-blocks     Used  Available Use% Mounted on
/dev/mapper/vg--ctom-lv--scratch 1057840472 33050488 1024789984   4% /scratch
GAMESS temporary binary files will be written to /scratch/barrois.272758
GAMESS supplementary output files will be written to /home/barrois/VB/anthracene
Copying input file ./anthracene_cas88.inp to your run's scratch directory...
 
Assuming a single but multicore node.
 

 Distributed Data Interface kickoff program.
 Initiating 12 compute processes on 1 nodes to run the following command:
 /home/humbel/fuming/softwares/gamess/2020-R2/gamess.xmvb.x anthracene_cas88 

          *******************************************************
          *                                                     *
          *          GAMESS VERSION = 30 SEP 2020 (R2)          *
          *                                                     *
          *              doi.org/10.1063/5.0005188              *
          *                                                     *
          **************** 64 BIT LINUX VERSION *****************

  GAMESS HAS BEEN MADE POSSIBLE WITH IMPORTANT CONTRIBUTIONS FROM
  THE FOLLOWING INDIVIDUALS (IN ALPHABETICAL ORDER):

     IVANA ADAMOVIC, CHRISTINE AIKENS, TOMOKO AKAMA,
     YURI ALEXEEV, YURIKO AOKI, POOJA ARORA, TOSHIO ASADA,
     ANDREY ASADCHEV, KIM K. BALDRIDGE, PRADIPTA BANDYOPADHYAY,
     MARIA BARYSZ, ROB BELL, JONATHAN BENTZ, COLLEEN BERTONI,
     JERRY A. BOATZ, BRETT BODE, KURT BRORSEN, KURT R. BRORSEN,
     LAIMUTIS BYTAUTAS, CALEB CARLIN, LAURA CARRINGTON,
     GALINA CHABAN, BENOIT CHAMPAGNE, WEI CHEN, MAHITO CHIBA,
     DAN CHIPMAN, CHEOL HO CHOI, TANNER CULPITT,
     DIPAYAN DATTA, PAUL DAY, ALBERT DEFUSCO,
     NUWAN DESILVA, J. EMILIANO DEUSTUA,
     TIM DUDLEY, MICHEL DUPUIS, STEVEN T. ELBERT,
     DMITRI FEDOROV, ALEX FINDLATER, GRAHAM FLETCHER,
     MARK FREITAG, CHRISTIAN FRIEDL, DAVID GARMER,
     IGOR S. GERASIMOV, KURT GLAESEMANN, MARK S. GORDON,
     JEFFREY GOUR, FENG LONG GU, EMILIE B. GUIDEZ,
     ANASTASIA GUNINA, SHARON HAMMES-SCHIFFER, MASATAKE HARUTA,
     KIMIHIKO HIRAO, YASUHIRO IKABATA, TZVETELIN IORDANOV,
     STEPHAN IRLE, KAZUYA ISHIMURA, JOE IVANIC, FRANK JENSEN,
     JAN H. JENSEN, VISVALDAS KAIRYS, MUNEAKI KAMIYA,
     MICHIO KATOUDA, NAOAKI KAWAKAMI, DAN KEMP, BERNARD KIRTMAN,
     KAZUO KITAURA, MARIUSZ KLOBUKOWSKI, MASATO KOBAYASHI,
     PRAKASHAN KORAMBATH, JACEK KORCHOWIEC, SHIRO KOSEKI,
     KAROL KOWALSKI, JIMMY KROMANN, STANISLAW KUCHARSKI,
     HENRY KURTZ, SAROM SOK LEANG, HUI LI, SHUHUA LI, WEI LI,
     JESSE LUTZ, ALEKSANDR O. LYKHIN, MARCIN MAKOWSKI,
     JOANI MATO, NIKITA MATSUNAGA, BENEDETTA MENNUCCI,
     GRANT MERRILL, NORIYUKI MINEZAWA, VLADIMIR MIRONOV,
     EISAKU MIYOSHI, JOHN A. MONTGOMERY JR., HIROTOSHI MORI,
     JONATHAN MULLIN, MONIKA MUSIAL, SHIGERU NAGASE,
     TAKESHI NAGATA, HIROMI NAKAI, TAKAHITO NAKAJIMA,
     YUYA NAKAJIMA, HARUYUKI NAKANO, HIROYA NAKATA, SEAN NEDD,
     HEATHER NETZLOFF, KIET A. NGUYEN, YOSHIO NISHIMOTO,
     BOSILJKA NJEGIC, RYAN OLSON, MIKE PAK, ROBERTO PEVERATI,
     BUU PHAM, PIOTR PIECUCH, ANNA POMOGAEVA, DAVID POOLE,
     SPENCER PRUITT, OLIVIER QUINET, LUKE ROSKOP,
     KLAUS RUEDENBERG, ANDREW SAND, TOSAPORN SATTASATHUCHANA,
     NOZOMI SAWADA, MICHAEL W. SCHMIDT, PATRICK E. SCHNEIDER,
     JUNJI SEINO, PRACHI SHARMA, JUN SHEN, JIM SHOEMAKER,
     YINAN SHU, DEJUN SI, JONATHAN SKONE, LYUDMILA SLIPCHENKO,
     TONY SMITH, JIE SONG, MARK SPACKMAN, CASPER STEINMANN,
     WALT STEVENS, PEIFENG SU, SHUJUN SU, CHET SWALINA,
     TETSUYA TAKETSUGU, ZHEN TAO, NANDUN THELLAMUREGE
     SEIKEN TOKURA, JACOPO TOMASI, TSUGUKI TOUMA, TAKAO TSUNEDA,
     HIROAKI UMEDA, JORGE LUIS GALVEZ VALLEJO, YALI WANG,
     SIMON WEBB, AARON WEST, THERESA L. WINDUS, MARTA WLOCH,
     PENG XU, KIYOSHI YAGI, SUSUMU YANAGISAWA, YANG YANG,
     SOOHAENG YOO, TAKESHI YOSHIKAWA, FEDERICO ZAHARIEV,
     TOBY ZENG

  WHO ARE SUPPORTED BY THEIR INSTITUTION/UNIVERSITY/COMPANY/GROUP
  (IN ALPHABETICAL ORDER):

     EP ANALYTICS, FACULTES UNIVERSITAIRES NOTRE-DAME DE LA PAIX,
     INSTITUTE FOR MOLECULAR SCIENCE, IOWA STATE UNIVERSITY,
     JACKSON STATE UNIVERSITY, JOHANNES KEPLER UNIVERSITY LINZ,
     KYUSHU UNIVERSITY, MICHIGAN STATE UNIVERSITY,
     MIE UNIVERSITY, MOSCOW STATE UNIVERSITY,
     N. COPERNICUS UNIVERSITY, NAGOYA UNIVERSITY,
     NANJING UNIVERSITY, NAT. INST. OF ADVANCED INDUSTRIAL
     SCIENCE AND TECHNOLOGY, NATIONAL INST. OF STANDARDS AND
     TECHNOLOGY, NESMEYANOV INSTITUTE OF ORGANOELEMENT COMPOUNDS
     OF RUSSIAN ACADEMY OF SCIENCES, OSAKA PREFECTURE UNIVERSITY,
     PENNSYLVANIA STATE UNIVERSITY, TOKYO INSTITUTE OF TECHNOLOGY,
     UNIVERSITY OF AARHUS, UNIVERSITY OF ALBERTA,
     UNIVERSITY OF CALIFORNIA AT SANTA BARBARA,
     UNIVERSITY OF COPENHAGEN, UNIVERSITY OF IOWA,
     UNIVERSITY OF MEMPHIS, UNIVERSITY OF MINNESOTA,
     UNIVERSITY OF NEBRASKA, UNIVERSITY OF NEW ENGLAND,
     UNIVERSITY OF NOTRE DAME, UNIVERSITY OF PISA,
     UNIVERSITY OF SILESIA, UNIVERSITY OF TOKYO,
     UNIVERSITY OF ZURICH, WASEDA UNIVERSITY, YALE UNIVERSITY

  GAMESS SOFTWARE MANAGEMENT TEAM FOR THIS RELEASE:
     MARK S. GORDON (TEAM LEAD),
     BRETT BODE (SENIOR ADVISOR),
     GIUSEPPE BARCA,
     COLLEEN BERTONI,
     KRISTOPHER KEIPERT (ADVISOR),
     SAROM S. LEANG (DEVELOPMENT LEAD),
     BUU PHAM,
     JORGE LUIS GALVEZ VALLEJO (WEBSITE ADMINISTRATOR),
     PENG XU


 PARALLEL VERSION RUNNING ON       12 PROCESSORS IN        1 NODES.

 EXECUTION OF GAMESS BEGUN 16:23:26 29-JAN-2025    

            ECHO OF THE FIRST FEW INPUT CARDS -
 INPUT CARD>!! filename=anthracene                                                          
 INPUT CARD>!                                                                               
 INPUT CARD>!   GAMESS Calculation input file                                               
 INPUT CARD>!                                                                               
 INPUT CARD>!                                                                               
 INPUT CARD> $CONTRL SCFTYP=MCSCF RUNTYP=ENERGY COORD=UNIQUE  MAXIT=30 MULT=1 $END          
 INPUT CARD> $SYSTEM TIMLIM=525600 MEMORY=40000000 $END                                     
 INPUT CARD> $MCSCF CISTEP=GUGA MAXIT=200 QUAD=.F. $END                                     
 INPUT CARD> $DRT    GROUP=C1  FORS=.TRUE. NMCC=43 NDOC=4 NVAL=4 $END                       
 INPUT CARD> $GUGDIA NSTATE=1 PRTTOL=0.01 $END                                              
 INPUT CARD> $GUGDM2 WSTATE(1)=1.0 $END                                                     
 INPUT CARD>                                                                                
 INPUT CARD> $BASIS  GBASIS=N31 NGAUSS=6                                                    
 INPUT CARD>         NDFUNC=1   NPFUNC=0  $END                                              
 INPUT CARD>                                                                                
 INPUT CARD> $SCF    DIRSCF=.TRUE. $END                                                     
 INPUT CARD> $GUESS  GUESS=MOREAD                                                           
 INPUT CARD>   NORB=55                                                                      
 INPUT CARD>  ! norder=1 iorder(48)=52,53,54,55,48,49,50,51                                 
 INPUT CARD> $END                                                                           
 INPUT CARD>                                                                                
 INPUT CARD> $DATA                                                                          
 INPUT CARD>                                                                                
 INPUT CARD>  C1                                                                            
 INPUT CARD>  C  6.0  0.00000    1.40119    -0.00000                                        
 INPUT CARD>  C  6.0  0.00000   -1.40119     0.00000                                        
 INPUT CARD>  C  6.0  2.47682   -1.40470     0.00000                                        
 INPUT CARD>  C  6.0 -2.47682    1.40470    -0.00000                                        
 INPUT CARD>  C  6.0  2.47682    1.40470    -0.00000                                        
 INPUT CARD>  C  6.0 -2.47682   -1.40470    -0.00000                                        
 INPUT CARD>  C  6.0 -1.22202    0.72155    -0.00000                                        
 INPUT CARD>  C  6.0  1.22202   -0.72155     0.00000                                        
 INPUT CARD>  C  6.0  3.65503   -0.71227     0.00000                                        
 INPUT CARD>  C  6.0 -3.65503    0.71227    -0.00000                                        
 INPUT CARD>  C  6.0  3.65503    0.71227    -0.00000                                        
 INPUT CARD>  C  6.0 -3.65503   -0.71227    -0.00000                                        
 INPUT CARD>  C  6.0  1.22202    0.72155     0.00000                                        
 INPUT CARD>  C  6.0 -1.22202   -0.72155     0.00000                                        
 INPUT CARD>  H  1.0  2.47711    2.49085    -0.00000                                        
 INPUT CARD>  H  1.0 -2.47711   -2.49085    -0.00000                                        
 INPUT CARD>  H  1.0  0.00000    2.48817    -0.00000                                        
 INPUT CARD>  H  1.0  0.00000   -2.48817     0.00000                                        
 INPUT CARD>  H  1.0  2.47711   -2.49085     0.00000                                        
 INPUT CARD>  H  1.0 -2.47711    2.49085    -0.00000                                        
 INPUT CARD>  H  1.0  4.60051   -1.24509     0.00000                                        
 INPUT CARD>  H  1.0 -4.60051    1.24509    -0.00000                                        
 INPUT CARD>  H  1.0  4.60051    1.24509    -0.00000                                        
 INPUT CARD>  H  1.0 -4.60051   -1.24509    -0.00000                                        
 INPUT CARD> $END                                                                           
 INPUT CARD> $VEC                                                                           
   40000000 WORDS OF MEMORY AVAILABLE

     BASIS OPTIONS
     -------------
     GBASIS=N31          IGAUSS=       6      POLAR=POPN31  
     NDFUNC=       1     NFFUNC=       0     DIFFSP=       F
     NPFUNC=       0      DIFFS=       F     BASNAM=        


     RUN TITLE
     ---------
                                                                                 

 THE POINT GROUP OF THE MOLECULE IS C1      
 THE ORDER OF THE PRINCIPAL AXIS IS     0

 ATOM      ATOMIC                      COORDINATES (BOHR)
           CHARGE         X                   Y                   Z
 C           6.0     0.0000000000        2.6478651567       -0.0000000000
 C           6.0     0.0000000000       -2.6478651567        0.0000000000
 C           6.0     4.6805111209       -2.6544980950        0.0000000000
 C           6.0    -4.6805111209        2.6544980950       -0.0000000000
 C           6.0     4.6805111209        2.6544980950       -0.0000000000
 C           6.0    -4.6805111209       -2.6544980950       -0.0000000000
 C           6.0    -2.3092829515        1.3635317864       -0.0000000000
 C           6.0     2.3092829515       -1.3635317864        0.0000000000
 C           6.0     6.9070051769       -1.3459951293        0.0000000000
 C           6.0    -6.9070051769        1.3459951293       -0.0000000000
 C           6.0     6.9070051769        1.3459951293       -0.0000000000
 C           6.0    -6.9070051769       -1.3459951293       -0.0000000000
 C           6.0     2.3092829515        1.3635317864        0.0000000000
 C           6.0    -2.3092829515       -1.3635317864        0.0000000000
 H           1.0     4.6810591414        4.7070239765       -0.0000000000
 H           1.0    -4.6810591414       -4.7070239765       -0.0000000000
 H           1.0     0.0000000000        4.7019595109       -0.0000000000
 H           1.0     0.0000000000       -4.7019595109        0.0000000000
 H           1.0     4.6810591414       -4.7070239765        0.0000000000
 H           1.0    -4.6810591414        4.7070239765       -0.0000000000
 H           1.0     8.6937033038       -2.3528789301        0.0000000000
 H           1.0    -8.6937033038        2.3528789301       -0.0000000000
 H           1.0     8.6937033038        2.3528789301       -0.0000000000
 H           1.0    -8.6937033038       -2.3528789301       -0.0000000000

          INTERNUCLEAR DISTANCES (ANGS.)
          ------------------------------

                1 C          2 C          3 C          4 C          5 C     

   1 C       0.0000000    2.8023800 *  3.7426803    2.4768225 *  2.4768225 *
   2 C       2.8023800 *  0.0000000    2.4768225 *  3.7426803    3.7426803  
   3 C       3.7426803    2.4768225 *  0.0000000    5.6948466    2.8094000 *
   4 C       2.4768225 *  3.7426803    5.6948466    0.0000000    4.9536400  
   5 C       2.4768225 *  3.7426803    2.8094000 *  4.9536400    0.0000000  
   6 C       3.7426803    2.4768225 *  4.9536400    2.8094000 *  5.6948466  
   7 C       1.3983002 *  2.4493587 *  4.2664220    1.4287116 *  3.7613975  
   8 C       2.4493587 *  1.3983002 *  1.4287116 *  4.2664220    2.4688990 *
   9 C       4.2220798    3.7193891    1.3666156 *  6.4869983    2.4227548 *
  10 C       3.7193891    4.2220798    6.4869983    1.3666156 *  6.1708220  
  11 C       3.7193891    4.2220798    2.4227548 *  6.1708220    1.3666156 *
  12 C       4.2220798    3.7193891    6.1708220    2.4227548 *  6.4869983  
  13 C       1.3983002 *  2.4493587 *  2.4688990 *  3.7613975    1.4287116 *
  14 C       2.4493587 *  1.3983002 *  3.7613975    2.4688990 *  4.2664220  
  15 H       2.7061842 *  4.6134639    3.8955500    5.0716017    1.0861500 *
  16 H       4.6134639    2.7061842 *  5.0716017    3.8955500    6.3021212  
  17 H       1.0869800 *  3.8893600    4.6140085    2.7034320 *  2.7034320 *
  18 H       3.8893600    1.0869800 *  2.7034320 *  4.6140085    4.6140085  
  19 H       4.6134639    2.7061842 *  1.0861500 *  6.3021212    3.8955500  
  20 H       2.7061842 *  4.6134639    6.3021212    1.0861500 *  5.0716017  
  21 H       5.3073054    4.6031576    2.1296795 *  7.5571150    3.3957983  
  22 H       4.6031576    5.3073054    7.5571150    2.1296795 *  7.0791296  
  23 H       4.6031576    5.3073054    3.3957983    7.0791296    2.1296795 *
  24 H       5.3073054    4.6031576    7.0791296    3.3957983    7.5571150  

                6 C          7 C          8 C          9 C         10 C     

   1 C       3.7426803    1.3983002 *  2.4493587 *  4.2220798    3.7193891  
   2 C       2.4768225 *  2.4493587 *  1.3983002 *  3.7193891    4.2220798  
   3 C       4.9536400    4.2664220    1.4287116 *  1.3666156 *  6.4869983  
   4 C       2.8094000 *  1.4287116 *  4.2664220    6.4869983    1.3666156 *
   5 C       5.6948466    3.7613975    2.4688990 *  2.4227548 *  6.1708220  
   6 C       0.0000000    2.4688990 *  3.7613975    6.1708220    2.4227548 *
   7 C       2.4688990 *  0.0000000    2.8382863 *  5.0834493    2.4330277 *
   8 C       3.7613975    2.8382863 *  0.0000000    2.4330277 *  5.0834493  
   9 C       6.1708220    5.0834493    2.4330277 *  0.0000000    7.4475695  
  10 C       2.4227548 *  2.4330277 *  5.0834493    7.4475695    0.0000000  
  11 C       6.4869983    4.8770588    2.8240711 *  1.4245400 *  7.3100600  
  12 C       1.3666156 *  2.8240711 *  4.8770588    7.3100600    1.4245400 *
  13 C       4.2664220    2.4440400 *  1.4431000 *  2.8240711 *  4.8770588  
  14 C       1.4287116 *  1.4431000 *  2.4440400 *  4.8770588    2.8240711 *
  15 H       6.3021212    4.1004860    3.4488788    3.4128395    6.3848640  
  16 H       1.0861500 *  3.4488788    4.1004860    6.3848640    3.4128395  
  17 H       4.6140085    2.1480873 *  3.4344775    4.8581952    4.0636271  
  18 H       2.7034320 *  3.4344775    2.1480873 *  4.0636271    4.8581952  
  19 H       5.0716017    4.8992935    2.1692564 *  2.1332703 *  6.9183176  
  20 H       3.8955500    2.1692564 *  4.8992935    6.9183176    2.1332703 *
  21 H       7.0791296    6.1456919    3.4188139    1.0852786 *  8.4844092  
  22 H       3.3957983    3.4188139    6.1456919    8.4844092    1.0852786 *
  23 H       7.5571150    5.8460200    3.9092029    2.1737504 *  8.2727165  
  24 H       2.1296795 *  3.9092029    5.8460200    8.2727165    2.1737504 *

               11 C         12 C         13 C         14 C         15 H     

   1 C       3.7193891    4.2220798    1.3983002 *  2.4493587 *  2.7061842 *
   2 C       4.2220798    3.7193891    2.4493587 *  1.3983002 *  4.6134639  
   3 C       2.4227548 *  6.1708220    2.4688990 *  3.7613975    3.8955500  
   4 C       6.1708220    2.4227548 *  3.7613975    2.4688990 *  5.0716017  
   5 C       1.3666156 *  6.4869983    1.4287116 *  4.2664220    1.0861500 *
   6 C       6.4869983    1.3666156 *  4.2664220    1.4287116 *  6.3021212  
   7 C       4.8770588    2.8240711 *  2.4440400 *  1.4431000 *  4.1004860  
   8 C       2.8240711 *  4.8770588    1.4431000 *  2.4440400 *  3.4488788  
   9 C       1.4245400 *  7.3100600    2.8240711 *  4.8770588    3.4128395  
  10 C       7.3100600    1.4245400 *  4.8770588    2.8240711 *  6.3848640  
  11 C       0.0000000    7.4475695    2.4330277 *  5.0834493    2.1332703 *
  12 C       7.4475695    0.0000000    5.0834493    2.4330277 *  6.9183176  
  13 C       2.4330277 *  5.0834493    0.0000000    2.8382863 *  2.1692564 *
  14 C       5.0834493    2.4330277 *  2.8382863 *  0.0000000    4.8992935  
  15 H       2.1332703 *  6.9183176    2.1692564 *  4.8992935    0.0000000  
  16 H       6.9183176    2.1332703 *  4.8992935    2.1692564 *  7.0257833  
  17 H       4.0636271    4.8581952    2.1480873 *  3.4344775    2.4771114 *
  18 H       4.8581952    4.0636271    3.4344775    2.1480873 *  5.5611792  
  19 H       3.4128395    6.3848640    3.4488788    4.1004860    4.9817000  
  20 H       6.3848640    3.4128395    4.1004860    3.4488788    4.9542200  
  21 H       2.1737504 *  8.2727165    3.9092029    5.8460200    4.2972172  
  22 H       8.2727165    2.1737504 *  5.8460200    3.9092029    7.1864193  
  23 H       1.0852786 *  8.4844092    3.4188139    6.1456919    2.4618581 *
  24 H       8.4844092    1.0852786 *  6.1456919    3.4188139    8.0031214  

               16 H         17 H         18 H         19 H         20 H     

   1 C       4.6134639    1.0869800 *  3.8893600    4.6134639    2.7061842 *
   2 C       2.7061842 *  3.8893600    1.0869800 *  2.7061842 *  4.6134639  
   3 C       5.0716017    4.6140085    2.7034320 *  1.0861500 *  6.3021212  
   4 C       3.8955500    2.7034320 *  4.6140085    6.3021212    1.0861500 *
   5 C       6.3021212    2.7034320 *  4.6140085    3.8955500    5.0716017  
   6 C       1.0861500 *  4.6140085    2.7034320 *  5.0716017    3.8955500  
   7 C       3.4488788    2.1480873 *  3.4344775    4.8992935    2.1692564 *
   8 C       4.1004860    3.4344775    2.1480873 *  2.1692564 *  4.8992935  
   9 C       6.3848640    4.8581952    4.0636271    2.1332703 *  6.9183176  
  10 C       3.4128395    4.0636271    4.8581952    6.9183176    2.1332703 *
  11 C       6.9183176    4.0636271    4.8581952    3.4128395    6.3848640  
  12 C       2.1332703 *  4.8581952    4.0636271    6.3848640    3.4128395  
  13 C       4.8992935    2.1480873 *  3.4344775    3.4488788    4.1004860  
  14 C       2.1692564 *  3.4344775    2.1480873 *  4.1004860    3.4488788  
  15 H       7.0257833    2.4771114 *  5.5611792    4.9817000    4.9542200  
  16 H       0.0000000    5.5611792    2.4771114 *  4.9542200    4.9817000  
  17 H       5.5611792    0.0000000    4.9763400    5.5611792    2.4771114 *
  18 H       2.4771114 *  4.9763400    0.0000000    2.4771114 *  5.5611792  
  19 H       4.9542200    5.5611792    2.4771114 *  0.0000000    7.0257833  
  20 H       4.9817000    2.4771114 *  5.5611792    7.0257833    0.0000000  
  21 H       7.1864193    5.9246875    4.7654947    2.4618581 *  8.0031214  
  22 H       4.2972172    4.7654947    5.9246875    8.0031214    2.4618581 *
  23 H       8.0031214    4.7654947    5.9246875    4.2972172    7.1864193  
  24 H       2.4618581 *  5.9246875    4.7654947    7.1864193    4.2972172  

               21 H         22 H         23 H         24 H     

   1 C       5.3073054    4.6031576    4.6031576    5.3073054  
   2 C       4.6031576    5.3073054    5.3073054    4.6031576  
   3 C       2.1296795 *  7.5571150    3.3957983    7.0791296  
   4 C       7.5571150    2.1296795 *  7.0791296    3.3957983  
   5 C       3.3957983    7.0791296    2.1296795 *  7.5571150  
   6 C       7.0791296    3.3957983    7.5571150    2.1296795 *
   7 C       6.1456919    3.4188139    5.8460200    3.9092029  
   8 C       3.4188139    6.1456919    3.9092029    5.8460200  
   9 C       1.0852786 *  8.4844092    2.1737504 *  8.2727165  
  10 C       8.4844092    1.0852786 *  8.2727165    2.1737504 *
  11 C       2.1737504 *  8.2727165    1.0852786 *  8.4844092  
  12 C       8.2727165    2.1737504 *  8.4844092    1.0852786 *
  13 C       3.9092029    5.8460200    3.4188139    6.1456919  
  14 C       5.8460200    3.9092029    6.1456919    3.4188139  
  15 H       4.2972172    7.1864193    2.4618581 *  8.0031214  
  16 H       7.1864193    4.2972172    8.0031214    2.4618581 *
  17 H       5.9246875    4.7654947    4.7654947    5.9246875  
  18 H       4.7654947    5.9246875    5.9246875    4.7654947  
  19 H       2.4618581 *  8.0031214    4.2972172    7.1864193  
  20 H       8.0031214    2.4618581 *  7.1864193    4.2972172  
  21 H       0.0000000    9.5320389    2.4901800 *  9.2010200  
  22 H       9.5320389    0.0000000    9.2010200    2.4901800 *
  23 H       2.4901800 *  9.2010200    0.0000000    9.5320389  
  24 H       9.2010200    2.4901800 *  9.5320389    0.0000000  

  * ... LESS THAN  3.000


     ATOMIC BASIS SET
     ----------------
 THE CONTRACTED PRIMITIVE FUNCTIONS HAVE BEEN UNNORMALIZED
 THE CONTRACTED BASIS FUNCTIONS ARE NOW NORMALIZED TO UNITY

  SHELL TYPE  PRIMITIVE        EXPONENT          CONTRACTION COEFFICIENT(S)

 C         

      1   S       1          3047.5248800    0.001834737132
      1   S       2           457.3695180    0.014037322813
      1   S       3           103.9486850    0.068842622264
      1   S       4            29.2101553    0.232184443216
      1   S       5             9.2866630    0.467941348435
      1   S       6             3.1639270    0.362311985337

      2   L       7             7.8682723   -0.119332419775    0.068999066591
      2   L       8             1.8812885   -0.160854151696    0.316423960957
      2   L       9             0.5442493    1.143456437840    0.744308290898

      3   L      10             0.1687145    1.000000000000    1.000000000000

      4   D      11             0.8000000    1.000000000000

 C         

      5   S      12          3047.5248800    0.001834737132
      5   S      13           457.3695180    0.014037322813
      5   S      14           103.9486850    0.068842622264
      5   S      15            29.2101553    0.232184443216
      5   S      16             9.2866630    0.467941348435
      5   S      17             3.1639270    0.362311985337

      6   L      18             7.8682723   -0.119332419775    0.068999066591
      6   L      19             1.8812885   -0.160854151696    0.316423960957
      6   L      20             0.5442493    1.143456437840    0.744308290898

      7   L      21             0.1687145    1.000000000000    1.000000000000

      8   D      22             0.8000000    1.000000000000

 C         

      9   S      23          3047.5248800    0.001834737132
      9   S      24           457.3695180    0.014037322813
      9   S      25           103.9486850    0.068842622264
      9   S      26            29.2101553    0.232184443216
      9   S      27             9.2866630    0.467941348435
      9   S      28             3.1639270    0.362311985337

     10   L      29             7.8682723   -0.119332419775    0.068999066591
     10   L      30             1.8812885   -0.160854151696    0.316423960957
     10   L      31             0.5442493    1.143456437840    0.744308290898

     11   L      32             0.1687145    1.000000000000    1.000000000000

     12   D      33             0.8000000    1.000000000000

 C         

     13   S      34          3047.5248800    0.001834737132
     13   S      35           457.3695180    0.014037322813
     13   S      36           103.9486850    0.068842622264
     13   S      37            29.2101553    0.232184443216
     13   S      38             9.2866630    0.467941348435
     13   S      39             3.1639270    0.362311985337

     14   L      40             7.8682723   -0.119332419775    0.068999066591
     14   L      41             1.8812885   -0.160854151696    0.316423960957
     14   L      42             0.5442493    1.143456437840    0.744308290898

     15   L      43             0.1687145    1.000000000000    1.000000000000

     16   D      44             0.8000000    1.000000000000

 C         

     17   S      45          3047.5248800    0.001834737132
     17   S      46           457.3695180    0.014037322813
     17   S      47           103.9486850    0.068842622264
     17   S      48            29.2101553    0.232184443216
     17   S      49             9.2866630    0.467941348435
     17   S      50             3.1639270    0.362311985337

     18   L      51             7.8682723   -0.119332419775    0.068999066591
     18   L      52             1.8812885   -0.160854151696    0.316423960957
     18   L      53             0.5442493    1.143456437840    0.744308290898

     19   L      54             0.1687145    1.000000000000    1.000000000000

     20   D      55             0.8000000    1.000000000000

 C         

     21   S      56          3047.5248800    0.001834737132
     21   S      57           457.3695180    0.014037322813
     21   S      58           103.9486850    0.068842622264
     21   S      59            29.2101553    0.232184443216
     21   S      60             9.2866630    0.467941348435
     21   S      61             3.1639270    0.362311985337

     22   L      62             7.8682723   -0.119332419775    0.068999066591
     22   L      63             1.8812885   -0.160854151696    0.316423960957
     22   L      64             0.5442493    1.143456437840    0.744308290898

     23   L      65             0.1687145    1.000000000000    1.000000000000

     24   D      66             0.8000000    1.000000000000

 C         

     25   S      67          3047.5248800    0.001834737132
     25   S      68           457.3695180    0.014037322813
     25   S      69           103.9486850    0.068842622264
     25   S      70            29.2101553    0.232184443216
     25   S      71             9.2866630    0.467941348435
     25   S      72             3.1639270    0.362311985337

     26   L      73             7.8682723   -0.119332419775    0.068999066591
     26   L      74             1.8812885   -0.160854151696    0.316423960957
     26   L      75             0.5442493    1.143456437840    0.744308290898

     27   L      76             0.1687145    1.000000000000    1.000000000000

     28   D      77             0.8000000    1.000000000000

 C         

     29   S      78          3047.5248800    0.001834737132
     29   S      79           457.3695180    0.014037322813
     29   S      80           103.9486850    0.068842622264
     29   S      81            29.2101553    0.232184443216
     29   S      82             9.2866630    0.467941348435
     29   S      83             3.1639270    0.362311985337

     30   L      84             7.8682723   -0.119332419775    0.068999066591
     30   L      85             1.8812885   -0.160854151696    0.316423960957
     30   L      86             0.5442493    1.143456437840    0.744308290898

     31   L      87             0.1687145    1.000000000000    1.000000000000

     32   D      88             0.8000000    1.000000000000

 C         

     33   S      89          3047.5248800    0.001834737132
     33   S      90           457.3695180    0.014037322813
     33   S      91           103.9486850    0.068842622264
     33   S      92            29.2101553    0.232184443216
     33   S      93             9.2866630    0.467941348435
     33   S      94             3.1639270    0.362311985337

     34   L      95             7.8682723   -0.119332419775    0.068999066591
     34   L      96             1.8812885   -0.160854151696    0.316423960957
     34   L      97             0.5442493    1.143456437840    0.744308290898

     35   L      98             0.1687145    1.000000000000    1.000000000000

     36   D      99             0.8000000    1.000000000000

 C         

     37   S     100          3047.5248800    0.001834737132
     37   S     101           457.3695180    0.014037322813
     37   S     102           103.9486850    0.068842622264
     37   S     103            29.2101553    0.232184443216
     37   S     104             9.2866630    0.467941348435
     37   S     105             3.1639270    0.362311985337

     38   L     106             7.8682723   -0.119332419775    0.068999066591
     38   L     107             1.8812885   -0.160854151696    0.316423960957
     38   L     108             0.5442493    1.143456437840    0.744308290898

     39   L     109             0.1687145    1.000000000000    1.000000000000

     40   D     110             0.8000000    1.000000000000

 C         

     41   S     111          3047.5248800    0.001834737132
     41   S     112           457.3695180    0.014037322813
     41   S     113           103.9486850    0.068842622264
     41   S     114            29.2101553    0.232184443216
     41   S     115             9.2866630    0.467941348435
     41   S     116             3.1639270    0.362311985337

     42   L     117             7.8682723   -0.119332419775    0.068999066591
     42   L     118             1.8812885   -0.160854151696    0.316423960957
     42   L     119             0.5442493    1.143456437840    0.744308290898

     43   L     120             0.1687145    1.000000000000    1.000000000000

     44   D     121             0.8000000    1.000000000000

 C         

     45   S     122          3047.5248800    0.001834737132
     45   S     123           457.3695180    0.014037322813
     45   S     124           103.9486850    0.068842622264
     45   S     125            29.2101553    0.232184443216
     45   S     126             9.2866630    0.467941348435
     45   S     127             3.1639270    0.362311985337

     46   L     128             7.8682723   -0.119332419775    0.068999066591
     46   L     129             1.8812885   -0.160854151696    0.316423960957
     46   L     130             0.5442493    1.143456437840    0.744308290898

     47   L     131             0.1687145    1.000000000000    1.000000000000

     48   D     132             0.8000000    1.000000000000

 C         

     49   S     133          3047.5248800    0.001834737132
     49   S     134           457.3695180    0.014037322813
     49   S     135           103.9486850    0.068842622264
     49   S     136            29.2101553    0.232184443216
     49   S     137             9.2866630    0.467941348435
     49   S     138             3.1639270    0.362311985337

     50   L     139             7.8682723   -0.119332419775    0.068999066591
     50   L     140             1.8812885   -0.160854151696    0.316423960957
     50   L     141             0.5442493    1.143456437840    0.744308290898

     51   L     142             0.1687145    1.000000000000    1.000000000000

     52   D     143             0.8000000    1.000000000000

 C         

     53   S     144          3047.5248800    0.001834737132
     53   S     145           457.3695180    0.014037322813
     53   S     146           103.9486850    0.068842622264
     53   S     147            29.2101553    0.232184443216
     53   S     148             9.2866630    0.467941348435
     53   S     149             3.1639270    0.362311985337

     54   L     150             7.8682723   -0.119332419775    0.068999066591
     54   L     151             1.8812885   -0.160854151696    0.316423960957
     54   L     152             0.5442493    1.143456437840    0.744308290898

     55   L     153             0.1687145    1.000000000000    1.000000000000

     56   D     154             0.8000000    1.000000000000

 H         

     57   S     155            18.7311370    0.033494604338
     57   S     156             2.8253944    0.234726953484
     57   S     157             0.6401217    0.813757326146

     58   S     158             0.1612778    1.000000000000

 H         

     59   S     159            18.7311370    0.033494604338
     59   S     160             2.8253944    0.234726953484
     59   S     161             0.6401217    0.813757326146

     60   S     162             0.1612778    1.000000000000

 H         

     61   S     163            18.7311370    0.033494604338
     61   S     164             2.8253944    0.234726953484
     61   S     165             0.6401217    0.813757326146

     62   S     166             0.1612778    1.000000000000

 H         

     63   S     167            18.7311370    0.033494604338
     63   S     168             2.8253944    0.234726953484
     63   S     169             0.6401217    0.813757326146

     64   S     170             0.1612778    1.000000000000

 H         

     65   S     171            18.7311370    0.033494604338
     65   S     172             2.8253944    0.234726953484
     65   S     173             0.6401217    0.813757326146

     66   S     174             0.1612778    1.000000000000

 H         

     67   S     175            18.7311370    0.033494604338
     67   S     176             2.8253944    0.234726953484
     67   S     177             0.6401217    0.813757326146

     68   S     178             0.1612778    1.000000000000

 H         

     69   S     179            18.7311370    0.033494604338
     69   S     180             2.8253944    0.234726953484
     69   S     181             0.6401217    0.813757326146

     70   S     182             0.1612778    1.000000000000

 H         

     71   S     183            18.7311370    0.033494604338
     71   S     184             2.8253944    0.234726953484
     71   S     185             0.6401217    0.813757326146

     72   S     186             0.1612778    1.000000000000

 H         

     73   S     187            18.7311370    0.033494604338
     73   S     188             2.8253944    0.234726953484
     73   S     189             0.6401217    0.813757326146

     74   S     190             0.1612778    1.000000000000

 H         

     75   S     191            18.7311370    0.033494604338
     75   S     192             2.8253944    0.234726953484
     75   S     193             0.6401217    0.813757326146

     76   S     194             0.1612778    1.000000000000

 TOTAL NUMBER OF BASIS SET SHELLS             =   76
 NUMBER OF CARTESIAN GAUSSIAN BASIS FUNCTIONS =  230
 NUMBER OF ELECTRONS                          =   94
 CHARGE OF MOLECULE                           =    0
 SPIN MULTIPLICITY                            =    1
 NUMBER OF OCCUPIED ORBITALS (ALPHA)          =   47
 NUMBER OF OCCUPIED ORBITALS (BETA )          =   47
 TOTAL NUMBER OF ATOMS                        =   24
 THE NUCLEAR REPULSION ENERGY IS      766.3548992199

     $CONTRL OPTIONS
     ---------------
 SCFTYP=MCSCF        RUNTYP=ENERGY       EXETYP=RUN     
 MPLEVL=       0     CITYP =NONE         CCTYP =NONE         VBTYP =NONE    
 DFTTYP=NONE         TDDFT =NONE    
 MULT  =       1     ICHARG=       0     NZVAR =       0     COORD =UNIQUE  
 PP    =NONE         RELWFN=NONE         LOCAL =NONE         NUMGRD=       F
 ISPHER=      -1     NOSYM =       0     MAXIT =      30     UNITS =ANGS    
 PLTORB=       F     MOLPLT=       F     AIMPAC=       F     FRIEND=        
 NPRINT=       7     IREST =       0     GEOM  =INPUT   
 NORMF =       0     NORMP =       0     ITOL  =      20     ICUT  =       9
 INTTYP=BEST         GRDTYP=BEST         QMTTOL= 1.0E-06

     $SYSTEM OPTIONS
     ---------------
  REPLICATED MEMORY=    40000000 WORDS (ON EVERY NODE).
 DISTRIBUTED MEMDDI=           0 MILLION WORDS IN AGGREGATE,
 MEMDDI DISTRIBUTED OVER  12 PROCESSORS IS           0 WORDS/PROCESSOR.
 TOTAL MEMORY REQUESTED ON EACH PROCESSOR=    40000000 WORDS.
 TIMLIM=      525600.00 MINUTES, OR     365.0 DAYS.
 PARALL= T  BALTYP=  DLB     KDIAG=    0  COREFL= F
 MXSEQ2=     300 MXSEQ3=     150  mem10=         0  mem22=         0

 Using Gaussians for PCM contribution to MEP, params: 0.10000E+01 0.10000E-07

          ----------------
          PROPERTIES INPUT
          ----------------

     MOMENTS            FIELD           POTENTIAL          DENSITY
 IEMOM =       1   IEFLD =       0   IEPOT =       0   IEDEN =       0
 WHERE =COMASS     WHERE =NUCLEI     WHERE =NUCLEI     WHERE =NUCLEI  
 OUTPUT=BOTH       OUTPUT=BOTH       OUTPUT=BOTH       OUTPUT=BOTH    
 IEMINT=       0   IEFINT=       0                     IEDINT=       0
                                                       MORB  =       0

     -------------------------------
     INTEGRAL TRANSFORMATION OPTIONS
     -------------------------------
     NWORD  =            0
     CUTOFF = 1.0E-09     MPTRAN =       0
     DIRTRF =       F     AOINTS =DUP     

          ----------------------
          MCSCF INPUT PARAMETERS
          ----------------------
 CONVERGER SELECTION: FOCAS = F  SOSCF = T  FULLNR = F  QUD = F  JACOBI = F
 SECULAR EQUATION METHOD CISTEP = GUGA    
 --- GENERAL INPUT OPTIONS:
 MAXIT =     200  MICIT =       5  ACURCY= 1.000E-05
 DAMP  =   0.000  CANONC=       T  ENGTOL= 1.000E-10
 EKT   =       F  NPUNCH=       2  NWORD =         0
 REGENERATE CI AFTER CONVERGENCE = NONE    
 DIABATIZATION AFTER CONVERGENCE =        F
 --- INPUT FOR SOSCF CONVERGER:
 FORS  =       T  NOFO  =       1

          ----------------------
          INTEGRAL INPUT OPTIONS
          ----------------------
 NOPK  =       1 NORDER=       0 SCHWRZ=       T

     ------------------------------------------
     THE POINT GROUP IS C1 , NAXIS= 0, ORDER= 1
     ------------------------------------------

     DIMENSIONS OF THE SYMMETRY SUBSPACES ARE
 A   =  230

 ..... DONE SETTING UP THE RUN .....
 CPU     0: STEP CPU TIME=     0.14 TOTAL CPU TIME=          0.1 (      0.0 MIN)
 TOTAL WALL CLOCK TIME=          0.1 SECONDS, CPU UTILIZATION IS    95.15%

          ********************
          1 ELECTRON INTEGRALS
          ********************
 TIME TO DO   DIPOLE INTEGRALS=      0.02
 ...... END OF ONE-ELECTRON INTEGRALS ......
 CPU     0: STEP CPU TIME=     0.02 TOTAL CPU TIME=          0.2 (      0.0 MIN)
 TOTAL WALL CLOCK TIME=          0.2 SECONDS, CPU UTILIZATION IS    90.10%

          -------------
          GUESS OPTIONS
          -------------
          GUESS =MOREAD            NORB  =      55          NORDER=       0
          MIX   =       F          PRTMO =       F          PUNMO =       F
          TOLZ  = 1.0E-08          TOLE  = 1.0E-05
          SYMDEN=       F          PURIFY=       F

 INITIAL GUESS ORBITALS GENERATED BY MOREAD   ROUTINE.

 SYMMETRIES FOR INITIAL GUESS ORBITALS FOLLOW.   BOTH SET(S).
    51 ORBITALS ARE OCCUPIED (   14 CORE ORBITALS).
     1=A        2=A        3=A        4=A        5=A        6=A        7=A   
     8=A        9=A       10=A       11=A       12=A       13=A       14=A   
    15=A       16=A       17=A       18=A       19=A       20=A       21=A   
    22=A       23=A       24=A       25=A       26=A       27=A       28=A   
    29=A       30=A       31=A       32=A       33=A       34=A       35=A   
    36=A       37=A       38=A       39=A       40=A       41=A       42=A   
    43=A       44=A       45=A       46=A       47=A       48=A       49=A   
    50=A       51=A       52=A       53=A       54=A       55=A       56=A   
    57=A       58=A       59=A       60=A       61=A       62=A       63=A   
    64=A       65=A       66=A       67=A       68=A       69=A       70=A   
    71=A       72=A       73=A       74=A       75=A       76=A       77=A   
    78=A       79=A       80=A       81=A       82=A       83=A       84=A   
    85=A       86=A       87=A       88=A       89=A       90=A       91=A   
    92=A       93=A       94=A       95=A       96=A       97=A       98=A   
    99=A      100=A      101=A      102=A      103=A      104=A      105=A   
   106=A      107=A      108=A      109=A      110=A      111=A      112=A   
   113=A      114=A      115=A      116=A      117=A      118=A      119=A   
   120=A      121=A      122=A      123=A      124=A      125=A      126=A   
   127=A      128=A      129=A      130=A      131=A      132=A      133=A   
   134=A      135=A      136=A      137=A      138=A      139=A      140=A   
   141=A      142=A      143=A      144=A      145=A      146=A      147=A   
   148=A      149=A      150=A      151=A      152=A      153=A      154=A   
   155=A      156=A      157=A      158=A      159=A      160=A      161=A   
   162=A      163=A      164=A      165=A      166=A      167=A      168=A   
   169=A      170=A      171=A      172=A      173=A      174=A      175=A   
   176=A      177=A      178=A      179=A      180=A      181=A      182=A   
   183=A      184=A      185=A      186=A      187=A      188=A      189=A   
   190=A      191=A      192=A      193=A      194=A      195=A      196=A   
   197=A      198=A      199=A      200=A      201=A      202=A      203=A   
   204=A      205=A      206=A      207=A      208=A      209=A      210=A   
   211=A      212=A      213=A      214=A      215=A      216=A      217=A   
   218=A      219=A      220=A      221=A      222=A      223=A      224=A   
   225=A      226=A      227=A      228=A      229=A      230=A   
 ...... END OF INITIAL ORBITAL SELECTION ......
 CPU     0: STEP CPU TIME=     0.04 TOTAL CPU TIME=          0.2 (      0.0 MIN)
 TOTAL WALL CLOCK TIME=          0.3 SECONDS, CPU UTILIZATION IS    81.06%

                    ----------------------
                    AO INTEGRAL TECHNOLOGY
                    ----------------------
     S,P,L SHELL ROTATED AXIS INTEGRALS, REPROGRAMMED BY
        KAZUYA ISHIMURA (IMS) AND JOSE SIERRA (SYNSTAR).
     S,P,D,L SHELL ROTATED AXIS INTEGRALS PROGRAMMED BY
        KAZUYA ISHIMURA (INSTITUTE FOR MOLECULAR SCIENCE).
     S,P,D,F,G SHELL TO TOTAL QUARTET ANGULAR MOMENTUM SUM 5,
        ERIC PROGRAM BY GRAHAM FLETCHER (ELORET AND NASA ADVANCED
        SUPERCOMPUTING DIVISION, AMES RESEARCH CENTER).
     S,P,D,F,G,L SHELL GENERAL RYS QUADRATURE PROGRAMMED BY
        MICHEL DUPUIS (PACIFIC NORTHWEST NATIONAL LABORATORY).

          --------------------
          2 ELECTRON INTEGRALS
          --------------------

 THE -PK- OPTION IS OFF, THE INTEGRALS ARE NOT IN SUPERMATRIX FORM.
 STORING   15000 INTEGRALS/RECORD ON DISK, USING 12 BYTES/INTEGRAL.
 TWO ELECTRON INTEGRAL EVALUATION REQUIRES   93322 WORDS OF MEMORY.
 SCHWARZ INEQUALITY OVERHEAD:     24190 INTEGRALS, T=        0.02
 II,JST,KST,LST =  1  1  1  1 NREC =         1 INTLOC =    1
 II,JST,KST,LST =  2  1  1  1 NREC =         1 INTLOC =    2
 II,JST,KST,LST =  3  1  1  1 NREC =         1 INTLOC =   34
 II,JST,KST,LST =  4  1  1  1 NREC =         1 INTLOC =  214
 II,JST,KST,LST =  5  1  1  1 NREC =         1 INTLOC = 1189
 II,JST,KST,LST =  6  1  1  1 NREC =         1 INTLOC = 1550
 II,JST,KST,LST =  7  1  1  1 NREC =         1 INTLOC = 5005
 II,JST,KST,LST =  8  1  1  1 NREC =         1 INTLOC =11299
 II,JST,KST,LST =  9  1  1  1 NREC =         2 INTLOC =11435
 II,JST,KST,LST = 10  1  1  1 NREC =         2 INTLOC =14639
 II,JST,KST,LST = 11  1  1  1 NREC =         5 INTLOC =  515
 II,JST,KST,LST = 12  1  1  1 NREC =         8 INTLOC = 7196
 II,JST,KST,LST = 13  1  1  1 NREC =        14 INTLOC = 2987
 II,JST,KST,LST = 14  1  1  1 NREC =        14 INTLOC = 8990
 II,JST,KST,LST = 15  1  1  1 NREC =        18 INTLOC = 8997
 II,JST,KST,LST = 16  1  1  1 NREC =        25 INTLOC =14691
 II,JST,KST,LST = 17  1  1  1 NREC =        35 INTLOC = 6801
 II,JST,KST,LST = 18  1  1  1 NREC =        36 INTLOC = 5525
 II,JST,KST,LST = 19  1  1  1 NREC =        45 INTLOC = 2302
 II,JST,KST,LST = 20  1  1  1 NREC =        60 INTLOC =  368
 II,JST,KST,LST = 21  1  1  1 NREC =        78 INTLOC = 5195
 II,JST,KST,LST = 22  1  1  1 NREC =        79 INTLOC = 9934
 II,JST,KST,LST = 23  1  1  1 NREC =        92 INTLOC =11422
 II,JST,KST,LST = 24  1  1  1 NREC =       116 INTLOC =10836
 II,JST,KST,LST = 25  1  1  1 NREC =       142 INTLOC = 5842
 II,JST,KST,LST = 26  1  1  1 NREC =       148 INTLOC = 9313
 II,JST,KST,LST = 27  1  1  1 NREC =       183 INTLOC = 7135
 II,JST,KST,LST = 28  1  1  1 NREC =       233 INTLOC = 3780
 II,JST,KST,LST = 29  1  1  1 NREC =       301 INTLOC = 7241
 II,JST,KST,LST = 30  1  1  1 NREC =       311 INTLOC = 6731
 II,JST,KST,LST = 31  1  1  1 NREC =       369 INTLOC = 2632
 II,JST,KST,LST = 32  1  1  1 NREC =       448 INTLOC = 3386
 II,JST,KST,LST = 33  1  1  1 NREC =       555 INTLOC = 3189
 II,JST,KST,LST = 34  1  1  1 NREC =       563 INTLOC = 9166
 II,JST,KST,LST = 35  1  1  1 NREC =       616 INTLOC = 2973
 II,JST,KST,LST = 36  1  1  1 NREC =       703 INTLOC =12604
 II,JST,KST,LST = 37  1  1  1 NREC =       796 INTLOC = 2175
 II,JST,KST,LST = 38  1  1  1 NREC =       806 INTLOC =  675
 II,JST,KST,LST = 39  1  1  1 NREC =       867 INTLOC =13075
 II,JST,KST,LST = 40  1  1  1 NREC =       971 INTLOC =14676
 II,JST,KST,LST = 41  1  1  1 NREC =      1078 INTLOC =11202
 II,JST,KST,LST = 42  1  1  1 NREC =      1093 INTLOC =13249
 II,JST,KST,LST = 43  1  1  1 NREC =      1183 INTLOC = 7948
 II,JST,KST,LST = 44  1  1  1 NREC =      1323 INTLOC = 7479
 II,JST,KST,LST = 45  1  1  1 NREC =      1475 INTLOC =10524
 II,JST,KST,LST = 46  1  1  1 NREC =      1493 INTLOC = 4030
 II,JST,KST,LST = 47  1  1  1 NREC =      1596 INTLOC =14429
 II,JST,KST,LST = 48  1  1  1 NREC =      1760 INTLOC =  567
 II,JST,KST,LST = 49  1  1  1 NREC =      1933 INTLOC =13698
 II,JST,KST,LST = 50  1  1  1 NREC =      1971 INTLOC =12184
 II,JST,KST,LST = 51  1  1  1 NREC =      2187 INTLOC = 6876
 II,JST,KST,LST = 52  1  1  1 NREC =      2483 INTLOC = 3377
 II,JST,KST,LST = 53  1  1  1 NREC =      2847 INTLOC =  267
 II,JST,KST,LST = 54  1  1  1 NREC =      2896 INTLOC =  903
 II,JST,KST,LST = 55  1  1  1 NREC =      3182 INTLOC = 5518
 II,JST,KST,LST = 56  1  1  1 NREC =      3568 INTLOC = 8474
 II,JST,KST,LST = 57  1  1  1 NREC =      4043 INTLOC =  969
 II,JST,KST,LST = 58  1  1  1 NREC =      4097 INTLOC = 3805
 II,JST,KST,LST = 59  1  1  1 NREC =      4193 INTLOC = 2635
 II,JST,KST,LST = 60  1  1  1 NREC =      4248 INTLOC = 5319
 II,JST,KST,LST = 61  1  1  1 NREC =      4346 INTLOC = 6701
 II,JST,KST,LST = 62  1  1  1 NREC =      4417 INTLOC = 9897
 II,JST,KST,LST = 63  1  1  1 NREC =      4539 INTLOC = 9539
 II,JST,KST,LST = 64  1  1  1 NREC =      4612 INTLOC =13711
 II,JST,KST,LST = 65  1  1  1 NREC =      4738 INTLOC =11926
 II,JST,KST,LST = 66  1  1  1 NREC =      4800 INTLOC = 4035
 II,JST,KST,LST = 67  1  1  1 NREC =      4909 INTLOC = 2260
 II,JST,KST,LST = 68  1  1  1 NREC =      4971 INTLOC =10620
 II,JST,KST,LST = 69  1  1  1 NREC =      5082 INTLOC =14441
 II,JST,KST,LST = 70  1  1  1 NREC =      5133 INTLOC =11689
 II,JST,KST,LST = 71  1  1  1 NREC =      5221 INTLOC =14022
 II,JST,KST,LST = 72  1  1  1 NREC =      5273 INTLOC = 6526
 II,JST,KST,LST = 73  1  1  1 NREC =      5362 INTLOC =11653
 II,JST,KST,LST = 74  1  1  1 NREC =      5416 INTLOC = 7235
 II,JST,KST,LST = 75  1  1  1 NREC =      5508 INTLOC =10129
 II,JST,KST,LST = 76  1  1  1 NREC =      5563 INTLOC = 1528
 SCHWARZ INEQUALITY TEST SKIPPED     2328228 INTEGRAL BLOCKS.
 TOTAL NUMBER OF NONZERO TWO-ELECTRON INTEGRALS =            84832992
       5656 INTEGRAL RECORDS WERE STORED ON DISK FILE  8.
  ...... END OF TWO-ELECTRON INTEGRALS .....
 STEP CPU TIME =    16.86 TOTAL CPU TIME =         17.1 (      0.3 MIN)
 TOTAL WALL CLOCK TIME=         17.6 SECONDS, CPU UTILIZATION IS    97.10%

          -----------------
          MCSCF CALCULATION
          -----------------

 ----- NUCLEAR ENERGY ----- =       766.3548992199

          -----------------------     ----------------------------
          GUGA DISTINCT ROW TABLE     WRITTEN BY B.R.BROOKS,P.SAXE
          -----------------------     ----------------------------

      GROUP=C1           NPRT=       0
       FORS=       T   INTACT=       F
       FOCI=       F   MXNINT=   50000
       SOCI=       F   MXNEME=   10000
     IEXCIT=       0

      -CORE-    -INTERNAL-  -EXTERNAL-
     NFZC=   0   NDOC=   4   NEXT=   0
     NMCC=  43   NAOS=   0   NFZV=   0
                 NBOS=   0
                 NALP=   0
                 NVAL=   4

 THE MAXIMUM ELECTRON EXCITATION WILL BE   8

 SYMMETRIES FOR THE  43 CORE,   8 ACTIVE,   0 EXTERNAL MO-S ARE
     CORE= A     A     A     A     A     A     A     A     A     A   
           A     A     A     A     A     A     A     A     A     A   
           A     A     A     A     A     A     A     A     A     A   
           A     A     A     A     A     A     A     A     A     A   
           A     A     A   
   ACTIVE= A     A     A     A     A     A     A     A   
           DOC   DOC   DOC   DOC   VAL   VAL   VAL   VAL 

 MOLECULAR CHARGE          =    0
 NUMBER OF ALPHA ELECTRONS =   47
 NUMBER OF  BETA ELECTRONS =   47

 THE ELECTRONIC STATE IS  1-A   

 THE DISTINCT ROW TABLE HAS        55 ROWS.
  THE WAVEFUNCTION CONTAINS      1764 WALKS (CSF-S).

 TOTAL NUMBER OF INTEGRALS =        814
 NUMBER OF INTEGRALS/GROUP =        814
 NUMBER OF INTEGRAL GROUPS =          1
 MAXIMUM RECORD SIZES ARE    1764 FOR UNIT 11    1764 FOR UNIT 12
                            30001 FOR UNIT 15   30001 FOR UNIT 16
 ...... END OF -DRT- GENERATION ...... 
 CPU     0: STEP CPU TIME=     0.62 TOTAL CPU TIME=         17.7 (      0.3 MIN)
 TOTAL WALL CLOCK TIME=         18.2 SECONDS, CPU UTILIZATION IS    97.20%
 OPENING FILE DAFL30 WITH      81 LOGICAL RECORDS OF   52900 WORDS
 WITH A MAXIMUM OF        2106 PHYSICAL RECORDS OF    2048 WORDS

          ------------------------------
          CASSCF INTEGRAL TRANSFORMATION
          ------------------------------
 AO INTEGRALS WILL BE READ IN FROM DISK...

 NUMBER OF CORE MOLECULAR ORBITALS     =    43
 NUMBER OF OCCUPIED MOLECULAR ORBITALS =    51
 TOTAL NUMBER OF MOLECULAR ORBITALS    =   230
 TOTAL NUMBER OF ATOMIC ORBITALS       =   230
 MEMORY WHICH WOULD BE NEEDED FOR SINGLE PASS TRANSFORMATION =   50051907

 ----- CHOOSING THREE STEPS TRANSFORMATION -----
 NUMBER OF WORDS USED      =    5325771
 NUMBER OF WORDS AVAILABLE =   39999999
 NUMBER OF PASSES          =         12
 PASS #   1 COMPLETED IN         2.7 SECONDS.
 PASS #   2 IS ASSIGNED TO A DIFFERENT PROCESSOR.
 PASS #   3 IS ASSIGNED TO A DIFFERENT PROCESSOR.
 PASS #   4 IS ASSIGNED TO A DIFFERENT PROCESSOR.
 PASS #   5 IS ASSIGNED TO A DIFFERENT PROCESSOR.
 PASS #   6 IS ASSIGNED TO A DIFFERENT PROCESSOR.
 PASS #   7 IS ASSIGNED TO A DIFFERENT PROCESSOR.
 PASS #   8 IS ASSIGNED TO A DIFFERENT PROCESSOR.
 PASS #   9 IS ASSIGNED TO A DIFFERENT PROCESSOR.
 PASS #  10 IS ASSIGNED TO A DIFFERENT PROCESSOR.
 PASS #  11 IS ASSIGNED TO A DIFFERENT PROCESSOR.
 PASS #  12 IS ASSIGNED TO A DIFFERENT PROCESSOR.

 ----- NUCLEAR REPULSION ENERGY =    766.35489922
 ----- FROZEN CORE ENERGY       =  -1294.48515273

 ... SYMMETRY ...           CPU =    0.03
 ... (PQ|RS) -> (PQ|KL) ... CPU =    2.74
 ... (PQ|KL) -> (IJ|KL) ... CPU =    0.01

 NUMBER OF (PQ|KL) INTEGRALS WRITTEN     436768
 NUMBER OF (IJ|KL) INTEGRALS WRITTEN        186
 ..... END OF CAS INTEGRAL TRANSFORMATION .....
 CPU     0: STEP CPU TIME=     2.79 TOTAL CPU TIME=         20.5 (      0.3 MIN)
 TOTAL WALL CLOCK TIME=         21.2 SECONDS, CPU UTILIZATION IS    96.71%

          ------------------------
          GUGA-CI INTEGRAL SORTING
          ------------------------

     80161 WORDS NEEDED TO SORT            814 GUGA INTEGRALS IN MEMORY
  39999999 WORDS ARE AVAILABLE
 CHOOSING IN-MEMORY SORTING...
 IN CORE ALGORITHM SORTED             36 NON-ZERO 1E- INTEGRALS
 IN CORE ALGORITHM SORTED            186 NON-ZERO 2E- INTEGRALS
 ...... END OF INTEGRAL SORTING ...... 
 CPU     0: STEP CPU TIME=     0.01 TOTAL CPU TIME=         20.5 (      0.3 MIN)
 TOTAL WALL CLOCK TIME=         21.2 SECONDS, CPU UTILIZATION IS    96.70%

 -------------------------     ---------------------------------------
 ENERGY MATRIX CALCULATION     WRITTEN BY B.R.BROOKS,W.D.LAIDIG,P.SAXE
 -------------------------     ---------------------------------------

 COMPUTING THE HAMILTONIAN FOR THE      1764 CSF-S...

      347575 IS THE TOTAL NUMBER OF GENERATED LOOPS
      347575 WERE CREATED BY THE LOOP-DRIVEN ALGORITHM
           0 WERE CREATED IMPLICITLY

       86641 IS THE TOTAL NUMBER OF PROCESSED LOOPS
        7507     DIAGONAL LOOPS ARE STORED ON WORK15 IN     1 BUFFERS OF  10000 ELEMENTS.
       79134 OFF DIAGONAL LOOPS ARE STORED ON WORK16 IN     1 BUFFERS OF  10000 ELEMENTS.
 ...... END OF ENERGY MATRIX CALCULATION ...... 
 CPU     0: STEP CPU TIME=     0.09 TOTAL CPU TIME=         20.6 (      0.3 MIN)
 TOTAL WALL CLOCK TIME=         21.3 SECONDS, CPU UTILIZATION IS    96.58%

          -----------------------------------------
          DAVIDSON METHOD CI-MATRIX DIAGONALIZATION
                   WRITTEN BY STEVE ELBERT
          -----------------------------------------
 NUMBER OF STATES REQUESTED =     1
 MAX. NUMB. OF EXPAN. VEC   =    30
 MAX. NUMB. IMPROVED STATES =     1
 MAX. NUMB. OF ITERATIONS   =    50
 CONVERGENCE CRITERION      =    1.0E-05

 CHOOSING TO SOLVE SECULAR EQUATION IN MEMORY
 NUMBER OF WORDS AVAILABLE =   39999999
 NUMBER OF WORDS USED      =    1720020
 ENERGY MATRIX BUFFER SIZE =      10000

 ITER. NO.JUST IMPROVED    ENERGY AND STATE
   0  50(MAX.TOL.STATE)   -536.001127800  1
   1   6  0.77542063  3   -536.044838794  1
   2   5  0.64203051  4   -536.050272261  1
   3   4  0.16051121  3   -536.051024748  1
   4   3  0.04785332  2   -536.051166719  1
   5   2  0.00351164  1   -536.051179700  1
   6   1  0.00113156  1   -536.051180911  1
   7   1  0.00032596  1   -536.051181027  1
   8   1  0.00008060  1   -536.051181034  1
   9   1  0.00002034  1   -536.051181035  1
  10   1  0.00000572  1   -536.051181035  1
 SOLUTION FOUND WITH INDIRECT METHOD

 STATE #    1  ENERGY =    -536.051181035

      CSF      COEF    OCCUPANCY (IGNORING CORE)
      ---      ----    --------- --------- -----
        1    0.946877  22220000
        6   -0.035724  22200002
        9    0.019392  12210002
       10   -0.023277  22020002
       13   -0.019474  20220002
       15   -0.034051  02220002
       17   -0.014428  22120010
       28    0.047030  21210011
       34    0.050151  11220011
       56   -0.039746  22200020
       59   -0.039046  12210020
       60   -0.028680  22020020
       63   -0.057499  20220020
       65   -0.021086  02220020
      108   -0.015688  21220100
      110   -0.010295  22110101
      114   -0.059867  12120101
      122   -0.033193  12120101
      149    0.075191  21120110
      196    0.039503  21120110
      316   -0.034375  22200200
      320   -0.068857  22020200
      323   -0.027051  20220200
      325   -0.024316  02220200
      501   -0.029183  22201001
      504    0.099665  12211001
      505   -0.012634  22021001
      508    0.039481  20221001
      510   -0.016480  02221001
      532   -0.011849  21211010
      578   -0.101671  21211010
      584   -0.052104  11221010
      673   -0.011573  10211021
      701    0.118730  22111100
      852   -0.010948  20111120
      891    0.051875  22111100
     1107   -0.013134  12011201
     1191    0.013716  21011210
     1275   -0.123861  22202000
     1278    0.022553  12212000
     1279   -0.039175  22022000
     1282   -0.043080  20222000
     1284   -0.036643  02222000
     1364   -0.013627  11202011
     1403    0.014447  20202020
     1471    0.013520  12102101
     1525   -0.015418  21102110
     1660    0.020274  22002200
 ...... END OF CI-MATRIX DIAGONALIZATION ......
 CPU     0: STEP CPU TIME=     0.20 TOTAL CPU TIME=         20.8 (      0.3 MIN)
 TOTAL WALL CLOCK TIME=         21.5 SECONDS, CPU UTILIZATION IS    96.40%

          -------------------------------------
          2-PARTICLE DENSITY MATRIX CALCULATION
          -------------------------------------
 2 BODY DENSITY IS AN AVERAGE OF  1 STATE(S).
   STATE    WEIGHT          ENERGY
     1    1.000000     -536.0511810347
       347575 -DM2- LOOPS WERE GENERATED
       347575 WERE CREATED BY THE LOOP-DRIVEN ALGORITHM
            0 WERE CREATED IMPLICITLY
          1 RECORDS OF LENGTH 50000 WRITTEN TO FILE 15
 ...... END OF 2-PARTICLE DENSITY MATRIX CALCULATION ......
 CPU     0: STEP CPU TIME=     0.09 TOTAL CPU TIME=         20.9 (      0.3 MIN)
 TOTAL WALL CLOCK TIME=         21.7 SECONDS, CPU UTILIZATION IS    96.31%

          ----------------------------------
          2-PARTICLE DENSITY MATRIX LABELING
          ----------------------------------
      97802 WORDS NEEDED TO LABEL DM2 MATRIX
          1 RECORDS OF LENGTH 50000  READ FROM FILE 15
          1 RECORDS OF LENGTH 15000 WRITTEN TO FILE 16
 ...... END OF 2-PARTICLE DENSITY MATRIX LABELING ......
 CPU     0: STEP CPU TIME=     0.00 TOTAL CPU TIME=         20.9 (      0.3 MIN)
 TOTAL WALL CLOCK TIME=         21.7 SECONDS, CPU UTILIZATION IS    96.31%

          --------------
          -DM2- ORDERING
          --------------
      30703 WORDS NEEDED (  39999999 AVAILABLE) TO ORDER DM2 IN MEMORY
 CHOOSING IN MEMORY ORDERING...
                               1 RECORDS OF LENGTH 15000  READ FROM FILE 16
        186 DM2 VALUES IN      1 RECORDS OF LENGTH 15000 WRITTEN TO FILE 15
 ...... END OF -DM2- ORDERING ...... 
 CPU     0: STEP CPU TIME=     0.00 TOTAL CPU TIME=         20.9 (      0.3 MIN)
 TOTAL WALL CLOCK TIME=         21.7 SECONDS, CPU UTILIZATION IS    96.31%

          --------------------------------------
          APPROXIMATE SECOND-ORDER MCSCF PROGRAM
          --------------------------------------
          PROGRAM WRITTEN BY G.CHABAN, A.MARQUEZ, AND M.DUPUIS

  NUMBER OF WORDS NEEDED     =    1326117
  NUMBER AVAILABLE           =   39999999

 ----- GAMMA(IJKL)*(PQ|KL) PRODUCTS ----- CPU TIME =      0.136
 ----- ORBITAL SYMMETRY             ----- CPU TIME =      0.003
 ----- FOCK OPERATORS CONSTRUCTION  ----- CPU TIME =      0.632
 ----- WARNING : CORE-ACTIVE GAP    =    0.00474
     MICIT =   1 ASYMM =    0.011726 ROTMAX =    0.017473
 ----- EFFECTIVE FOCK + ROTATE ORBS ----- CPU TIME =      0.057
     MICIT =   2 ASYMM =    0.010096 ROTMAX =    0.006162
     MICIT =   3 ASYMM =    0.009634 ROTMAX =    0.016949
     MICIT =   4 ASYMM =    0.008796 ROTMAX =    0.010231
     MICIT =   5 ASYMM =    0.008140 ROTMAX =    0.009381
 ..... DONE WITH CASSCF ORBITAL UPDATE .....
 CPU     0: STEP CPU TIME=     1.29 TOTAL CPU TIME=         22.1 (      0.4 MIN)
 TOTAL WALL CLOCK TIME=         23.0 SECONDS, CPU UTILIZATION IS    96.35%

 ITER     TOTAL ENERGY      DEL(E)  LAGRANGIAN ASYMMETRY   SQCDF  MICIT   DAMP
   1     -536.051181035 -0.051181035  0.011726  127   48 1.747E-02  5   0.0000
       ----------START APPROXIMATE SECOND ORDER MCSCF----------
   2     -536.056157295 -0.004976260  0.008082  127   48 4.188E-02  1   0.0000
   3     -536.061422007 -0.005264712  0.005741  217   45 4.950E-02  1   0.0000
   4     -536.063718742 -0.002296736  0.005160  177   45 4.733E-03  1   0.0000
   5     -536.064271518 -0.000552776  0.003883  217   45 2.166E-02  1   0.0000
   6     -536.064796586 -0.000525067  0.001568  215   47 3.365E-04  1   0.0000
   7     -536.064828306 -0.000031720  0.001161  217   45 3.986E-05  1   0.0000
   8     -536.064837232 -0.000008926  0.000645  215   47 8.482E-06  1   0.0000
   9     -536.064839048 -0.000001817  0.000327  188   47 1.626E-06  1   0.0000
  10     -536.064839790 -0.000000742  0.000119  215   47 7.730E-07  1   0.0000
  11     -536.064839942 -0.000000152  0.000039   80   41 1.701E-07  1   0.0000
  12     -536.064839962 -0.000000020  0.000030   80   41 1.125E-08  1   0.0000
  13     -536.064839965 -0.000000003  0.000009  215   44 1.255E-09  1   0.0000

          --------------------
          LAGRANGIAN CONVERGED
          --------------------

 FINAL MCSCF ENERGY IS     -536.0648399648 AFTER  13 ITERATIONS

 -MCCI- BASED ON OPTIMIZED ORBITALS
 ----------------------------------

 PLEASE NOTE: IF THE ACTIVE ORBITALS ARE CANONICALIZED BELOW,
 THE FOLLOWING CI EXPANSION COEFFICIENTS AND THE DENSITY DO NOT
 CORRESPOND TO THE PRINTED ORBITALS.  THE PRINTED EXPANSIONS MATCH
 THE ORBITALS USED DURING THE LAST ITERATION.  IF YOU WISH TO SEE
 CI EXPANSIONS BASED ON THE CANONICAL (OR NATURAL) ORBITALS, YOU
 MUST RUN A CI CALCULATION WITH THAT ORBITAL CHOICE READ IN $VEC.

 STATE #    1  ENERGY =    -536.064839965

      CSF      COEF    OCCUPANCY (IGNORING CORE)
      ---      ----    --------- --------- -----
        1    0.937061  22220000
       28    0.057555  21210011
       34    0.059087  11220011
       63   -0.067732  20220020
      114   -0.060842  12120101
      149    0.062854  21120110
      320   -0.084791  22020200
      504    0.113579  12211001
      578   -0.116611  21211010
      584   -0.063122  11221010
      701    0.113849  22111100
     1275   -0.131243  22202000
     1282   -0.051197  20222000

 DENSITY MATRIX OVER ACTIVE MO-S

             1           2           3           4           5

    1    1.9549794
    2    0.0000000   1.9436347
    3    0.0000000  -0.0000000   1.9487739
    4   -0.0073071  -0.0000000  -0.0000000   1.8976195
    5   -0.0000000   0.0000000   0.0000000   0.0000000   0.1037245
    6   -0.0000000  -0.0134454  -0.0000000   0.0000000   0.0000000
    7    0.0000000  -0.0000000   0.0104982  -0.0000000  -0.0000000
    8    0.0000000  -0.0000000  -0.0000000  -0.0000000   0.0082659

             6           7           8

    6    0.0515988
    7   -0.0000000   0.0554883
    8   -0.0000000  -0.0000000   0.0441808

 FORMING THE "STANDARD FOCK OPERATOR" USING INTEGRALS FROM DISK...
    43 FILLED,    8 ACTIVE, AND  179 VIRTUAL ORBITALS  WILL BE CANONICALIZED

          ----------------------
          MCSCF NATURAL ORBITALS
          ----------------------

                      1          2          3          4          5
                  -11.2404   -11.2404   -11.2395   -11.2394   -11.2350
                     A          A          A          A          A   
    1  C  1  S    0.065899   0.000000  -0.074807  -0.000000  -0.000001
    2  C  1  S    0.001630   0.000000  -0.001942  -0.000000  -0.000000
    3  C  1  X    0.000000  -0.000169  -0.000000   0.000197  -0.000000
    4  C  1  Y    0.000130   0.000000  -0.000106  -0.000000  -0.000000
    5  C  1  Z   -0.000000  -0.000000  -0.000000  -0.000000  -0.000000
    6  C  1  S    0.002870   0.000000  -0.006011  -0.000000   0.000000
    7  C  1  X   -0.000000   0.001134   0.000000  -0.000509  -0.000613
    8  C  1  Y   -0.000584  -0.000000   0.002345   0.000000   0.000000
    9  C  1  Z   -0.000000  -0.000000  -0.000000  -0.000000  -0.000000
   10  C  1 XX   -0.000503  -0.000000   0.000676   0.000000   0.000000
   11  C  1 YY   -0.000388  -0.000000   0.000569   0.000000   0.000000
   12  C  1 ZZ   -0.000271  -0.000000   0.000312   0.000000  -0.000000
   13  C  1 XY   -0.000000   0.000091   0.000000  -0.000169   0.000007
   14  C  1 XZ   -0.000000  -0.000000  -0.000000  -0.000000  -0.000000
   15  C  1 YZ   -0.000000  -0.000000  -0.000000  -0.000000  -0.000000
   16  C  2  S    0.065899   0.000000   0.074807   0.000000  -0.000001
   17  C  2  S    0.001630   0.000000   0.001942   0.000000  -0.000000
   18  C  2  X    0.000000  -0.000169   0.000000  -0.000197  -0.000000
   19  C  2  Y   -0.000130  -0.000000  -0.000106  -0.000000   0.000000
   20  C  2  Z   -0.000000  -0.000000  -0.000000  -0.000000  -0.000000
   21  C  2  S    0.002870   0.000000   0.006011   0.000000   0.000000
   22  C  2  X   -0.000000   0.001134  -0.000000   0.000509  -0.000613
   23  C  2  Y    0.000584   0.000000   0.002345   0.000000  -0.000000
   24  C  2  Z   -0.000000  -0.000000  -0.000000  -0.000000  -0.000000
   25  C  2 XX   -0.000503  -0.000000  -0.000676  -0.000000   0.000000
   26  C  2 YY   -0.000388  -0.000000  -0.000569  -0.000000   0.000000
   27  C  2 ZZ   -0.000271  -0.000000  -0.000312  -0.000000  -0.000000
   28  C  2 XY    0.000000  -0.000091   0.000000  -0.000169  -0.000007
   29  C  2 XZ   -0.000000  -0.000000  -0.000000  -0.000000  -0.000000
   30  C  2 YZ   -0.000000  -0.000000  -0.000000  -0.000000  -0.000000
   31  C  3  S    0.026592   0.026818   0.030179   0.030773  -0.093961
   32  C  3  S    0.000670   0.000716   0.000856   0.000831  -0.002445
   33  C  3  X    0.000063   0.000071   0.000087   0.000050   0.000097
   34  C  3  Y   -0.000064  -0.000070  -0.000056  -0.000044   0.000054
   35  C  3  Z   -0.000000  -0.000000  -0.000000  -0.000000  -0.000000
   36  C  3  S    0.001450   0.001080   0.001550   0.003094  -0.000968
   37  C  3  X   -0.000745  -0.000358  -0.000600  -0.000327  -0.000622
   38  C  3  Y    0.000265   0.000248   0.000474   0.001458  -0.000524
   39  C  3  Z   -0.000000  -0.000000  -0.000000  -0.000000  -0.000000
   40  C  3 XX   -0.000267  -0.000291  -0.000359  -0.000363   0.000303
   41  C  3 YY   -0.000188  -0.000182  -0.000288  -0.000260   0.000279
   42  C  3 ZZ   -0.000130  -0.000123  -0.000136  -0.000147   0.000288
   43  C  3 XY    0.000074   0.000071   0.000108   0.000094  -0.000014
   44  C  3 XZ   -0.000000  -0.000000  -0.000000  -0.000000  -0.000000
   45  C  3 YZ   -0.000000  -0.000000  -0.000000  -0.000000  -0.000000
   46  C  4  S    0.026592  -0.026818  -0.030179   0.030773   0.094020
   47  C  4  S    0.000670  -0.000716  -0.000856   0.000831   0.002447
   48  C  4  X   -0.000063   0.000071   0.000087  -0.000050   0.000097
   49  C  4  Y    0.000064  -0.000070  -0.000056   0.000044   0.000054
   50  C  4  Z   -0.000000  -0.000000  -0.000000  -0.000000  -0.000000
   51  C  4  S    0.001450  -0.001080  -0.001550   0.003094   0.000968
   52  C  4  X    0.000745  -0.000358  -0.000600   0.000327  -0.000623
   53  C  4  Y   -0.000265   0.000248   0.000474  -0.001458  -0.000524
   54  C  4  Z   -0.000000  -0.000000  -0.000000  -0.000000  -0.000000
   55  C  4 XX   -0.000267   0.000291   0.000359  -0.000363  -0.000303
   56  C  4 YY   -0.000188   0.000182   0.000288  -0.000260  -0.000279
   57  C  4 ZZ   -0.000130   0.000123   0.000136  -0.000147  -0.000288
   58  C  4 XY    0.000074  -0.000071  -0.000108   0.000094   0.000014
   59  C  4 XZ   -0.000000  -0.000000  -0.000000  -0.000000  -0.000000
   60  C  4 YZ   -0.000000  -0.000000  -0.000000  -0.000000  -0.000000
   61  C  5  S    0.026592   0.026818  -0.030179  -0.030773  -0.093961
   62  C  5  S    0.000670   0.000716  -0.000856  -0.000831  -0.002445
   63  C  5  X    0.000063   0.000071  -0.000087  -0.000050   0.000097
   64  C  5  Y    0.000064   0.000070  -0.000056  -0.000044  -0.000054
   65  C  5  Z   -0.000000  -0.000000  -0.000000  -0.000000  -0.000000
   66  C  5  S    0.001450   0.001080  -0.001550  -0.003094  -0.000968
   67  C  5  X   -0.000745  -0.000358   0.000600   0.000327  -0.000622
   68  C  5  Y   -0.000265  -0.000248   0.000474   0.001458   0.000524
   69  C  5  Z   -0.000000  -0.000000  -0.000000  -0.000000  -0.000000
   70  C  5 XX   -0.000267  -0.000291   0.000359   0.000363   0.000303
   71  C  5 YY   -0.000188  -0.000182   0.000288   0.000260   0.000279
   72  C  5 ZZ   -0.000130  -0.000123   0.000136   0.000147   0.000288
   73  C  5 XY   -0.000074  -0.000071   0.000108   0.000094   0.000014
   74  C  5 XZ   -0.000000  -0.000000  -0.000000  -0.000000  -0.000000
   75  C  5 YZ   -0.000000  -0.000000  -0.000000  -0.000000  -0.000000
   76  C  6  S    0.026592  -0.026818   0.030180  -0.030773   0.094020
   77  C  6  S    0.000670  -0.000716   0.000856  -0.000831   0.002447
   78  C  6  X   -0.000063   0.000071  -0.000087   0.000050   0.000097
   79  C  6  Y   -0.000064   0.000070  -0.000056   0.000044  -0.000054
   80  C  6  Z   -0.000000  -0.000000  -0.000000  -0.000000  -0.000000
   81  C  6  S    0.001450  -0.001080   0.001550  -0.003094   0.000968
   82  C  6  X    0.000745  -0.000358   0.000600  -0.000327  -0.000623
   83  C  6  Y    0.000265  -0.000248   0.000474  -0.001458   0.000524
   84  C  6  Z   -0.000000  -0.000000  -0.000000  -0.000000  -0.000000
   85  C  6 XX   -0.000267   0.000291  -0.000359   0.000363  -0.000303
   86  C  6 YY   -0.000188   0.000182  -0.000288   0.000260  -0.000279
   87  C  6 ZZ   -0.000130   0.000123  -0.000136   0.000147  -0.000288
   88  C  6 XY   -0.000074   0.000071  -0.000108   0.000094  -0.000014
   89  C  6 XZ   -0.000000  -0.000000  -0.000000  -0.000000  -0.000000
   90  C  6 YZ   -0.000000  -0.000000  -0.000000  -0.000000  -0.000000
   91  C  7  S    0.494785  -0.496989  -0.494168   0.496971  -0.007316
   92  C  7  S    0.013731  -0.013902  -0.013876   0.013972  -0.000251
   93  C  7  X   -0.000041  -0.000014  -0.000015  -0.000040   0.000042
   94  C  7  Y    0.000068  -0.000019   0.000083  -0.000095   0.000024
   95  C  7  Z   -0.000000  -0.000000  -0.000000  -0.000000  -0.000000
   96  C  7  S   -0.004941   0.004488   0.011268  -0.009899  -0.000332
   97  C  7  X    0.000083   0.000161   0.001413   0.001200  -0.000246
   98  C  7  Y   -0.000707   0.000411  -0.001555   0.002075  -0.000244
   99  C  7  Z   -0.000000  -0.000000  -0.000000  -0.000000  -0.000000
  100  C  7 XX   -0.000837   0.000907   0.000528  -0.000628   0.000014
  101  C  7 YY   -0.001095   0.001108   0.000483  -0.000535   0.000001
  102  C  7 ZZ   -0.001216   0.001189   0.001036  -0.001071  -0.000003
  103  C  7 XY    0.000021  -0.000002  -0.000024   0.000020   0.000000
  104  C  7 XZ   -0.000000  -0.000000  -0.000000  -0.000000  -0.000000
  105  C  7 YZ   -0.000000  -0.000000  -0.000000  -0.000000  -0.000000
  106  C  8  S    0.494783   0.496991   0.494167   0.496972   0.007311
  107  C  8  S    0.013731   0.013902   0.013876   0.013972   0.000251
  108  C  8  X    0.000041  -0.000014  -0.000015   0.000040   0.000042
  109  C  8  Y   -0.000068  -0.000019   0.000083   0.000095   0.000024
  110  C  8  Z   -0.000000  -0.000000  -0.000000  -0.000000  -0.000000
  111  C  8  S   -0.004941  -0.004488  -0.011268  -0.009899   0.000332
  112  C  8  X   -0.000083   0.000161   0.001413  -0.001200  -0.000246
  113  C  8  Y    0.000707   0.000411  -0.001555  -0.002075  -0.000244
  114  C  8  Z   -0.000000  -0.000000  -0.000000  -0.000000  -0.000000
  115  C  8 XX   -0.000837  -0.000907  -0.000528  -0.000628  -0.000014
  116  C  8 YY   -0.001095  -0.001108  -0.000483  -0.000535  -0.000001
  117  C  8 ZZ   -0.001216  -0.001189  -0.001036  -0.001071   0.000003
  118  C  8 XY    0.000021   0.000002   0.000024   0.000020  -0.000000
  119  C  8 XZ   -0.000000  -0.000000  -0.000000  -0.000000  -0.000000
  120  C  8 YZ   -0.000000  -0.000000  -0.000000  -0.000000  -0.000000
  121  C  9  S    0.002212   0.002225   0.003930   0.004186  -0.488502
  122  C  9  S   -0.000027  -0.000020   0.000102   0.000158  -0.013529
  123  C  9  X    0.000026   0.000024  -0.000015  -0.000004   0.000053
  124  C  9  Y   -0.000014  -0.000019   0.000006   0.000011  -0.000009
  125  C  9  Z   -0.000000  -0.000000  -0.000000  -0.000000  -0.000000
  126  C  9  S    0.000105  -0.000079  -0.000684  -0.001820   0.004170
  127  C  9  X   -0.000101  -0.000075   0.000277   0.000895  -0.000415
  128  C  9  Y   -0.000033   0.000055  -0.000361  -0.000427  -0.000347
  129  C  9  Z   -0.000000  -0.000000  -0.000000  -0.000000  -0.000000
  130  C  9 XX    0.000038   0.000038   0.000058   0.000052   0.000985
  131  C  9 YY    0.000005   0.000004   0.000019   0.000015   0.001098
  132  C  9 ZZ   -0.000036  -0.000033   0.000009   0.000020   0.001228
  133  C  9 XY    0.000008   0.000010   0.000013   0.000007  -0.000040
  134  C  9 XZ   -0.000000  -0.000000  -0.000000  -0.000000  -0.000000
  135  C  9 YZ   -0.000000  -0.000000  -0.000000  -0.000000  -0.000000
  136  C 10  S    0.002212  -0.002225  -0.003930   0.004186   0.488808
  137  C 10  S   -0.000027   0.000020  -0.000102   0.000158   0.013538
  138  C 10  X   -0.000026   0.000024  -0.000015   0.000004   0.000053
  139  C 10  Y    0.000014  -0.000019   0.000006  -0.000011  -0.000009
  140  C 10  Z   -0.000000  -0.000000  -0.000000  -0.000000  -0.000000
  141  C 10  S    0.000105   0.000079   0.000684  -0.001820  -0.004173
  142  C 10  X    0.000101  -0.000075   0.000277  -0.000895  -0.000415
  143  C 10  Y    0.000033   0.000055  -0.000361   0.000427  -0.000347
  144  C 10  Z   -0.000000  -0.000000  -0.000000  -0.000000  -0.000000
  145  C 10 XX    0.000038  -0.000038  -0.000058   0.000052  -0.000986
  146  C 10 YY    0.000005  -0.000004  -0.000019   0.000015  -0.001099
  147  C 10 ZZ   -0.000036   0.000033  -0.000009   0.000020  -0.001229
  148  C 10 XY    0.000008  -0.000010  -0.000013   0.000007   0.000040
  149  C 10 XZ   -0.000000  -0.000000  -0.000000  -0.000000  -0.000000
  150  C 10 YZ   -0.000000  -0.000000  -0.000000  -0.000000  -0.000000
  151  C 11  S    0.002212   0.002225  -0.003930  -0.004186  -0.488502
  152  C 11  S   -0.000027  -0.000020  -0.000102  -0.000158  -0.013529
  153  C 11  X    0.000026   0.000024   0.000015   0.000004   0.000053
  154  C 11  Y    0.000014   0.000019   0.000006   0.000011   0.000009
  155  C 11  Z   -0.000000  -0.000000  -0.000000  -0.000000  -0.000000
  156  C 11  S    0.000105  -0.000079   0.000684   0.001820   0.004170
  157  C 11  X   -0.000101  -0.000075  -0.000277  -0.000895  -0.000415
  158  C 11  Y    0.000033  -0.000055  -0.000361  -0.000427   0.000347
  159  C 11  Z   -0.000000  -0.000000  -0.000000  -0.000000  -0.000000
  160  C 11 XX    0.000038   0.000038  -0.000058  -0.000052   0.000985
  161  C 11 YY    0.000005   0.000004  -0.000019  -0.000015   0.001098
  162  C 11 ZZ   -0.000036  -0.000033  -0.000009  -0.000020   0.001228
  163  C 11 XY   -0.000008  -0.000010   0.000013   0.000007   0.000040
  164  C 11 XZ   -0.000000  -0.000000  -0.000000  -0.000000  -0.000000
  165  C 11 YZ   -0.000000  -0.000000  -0.000000  -0.000000  -0.000000
  166  C 12  S    0.002212  -0.002225   0.003930  -0.004186   0.488808
  167  C 12  S   -0.000027   0.000020   0.000102  -0.000158   0.013538
  168  C 12  X   -0.000026   0.000024   0.000015  -0.000004   0.000053
  169  C 12  Y   -0.000014   0.000019   0.000006  -0.000011   0.000009
  170  C 12  Z   -0.000000  -0.000000  -0.000000  -0.000000  -0.000000
  171  C 12  S    0.000105   0.000079  -0.000684   0.001820  -0.004173
  172  C 12  X    0.000101  -0.000075  -0.000277   0.000895  -0.000415
  173  C 12  Y   -0.000033  -0.000055  -0.000361   0.000427   0.000347
  174  C 12  Z   -0.000000  -0.000000  -0.000000  -0.000000  -0.000000
  175  C 12 XX    0.000038  -0.000038   0.000058  -0.000052  -0.000986
  176  C 12 YY    0.000005  -0.000004   0.000019  -0.000015  -0.001099
  177  C 12 ZZ   -0.000036   0.000033   0.000009  -0.000020  -0.001229
  178  C 12 XY   -0.000008   0.000010  -0.000013   0.000007  -0.000040
  179  C 12 XZ   -0.000000  -0.000000  -0.000000  -0.000000  -0.000000
  180  C 12 YZ   -0.000000  -0.000000  -0.000000  -0.000000  -0.000000
  181  C 13  S    0.494783   0.496991  -0.494167  -0.496972   0.007311
  182  C 13  S    0.013731   0.013902  -0.013876  -0.013972   0.000251
  183  C 13  X    0.000041  -0.000014   0.000015  -0.000040   0.000042
  184  C 13  Y    0.000068   0.000019   0.000083   0.000095  -0.000024
  185  C 13  Z   -0.000000  -0.000000  -0.000000  -0.000000  -0.000000
  186  C 13  S   -0.004941  -0.004488   0.011268   0.009899   0.000332
  187  C 13  X   -0.000083   0.000161  -0.001413   0.001200  -0.000246
  188  C 13  Y   -0.000707  -0.000411  -0.001555  -0.002075   0.000244
  189  C 13  Z   -0.000000  -0.000000  -0.000000  -0.000000  -0.000000
  190  C 13 XX   -0.000837  -0.000907   0.000528   0.000628  -0.000014
  191  C 13 YY   -0.001095  -0.001108   0.000483   0.000535  -0.000001
  192  C 13 ZZ   -0.001216  -0.001189   0.001036   0.001071   0.000003
  193  C 13 XY   -0.000021  -0.000002   0.000024   0.000020   0.000000
  194  C 13 XZ   -0.000000  -0.000000  -0.000000  -0.000000  -0.000000
  195  C 13 YZ   -0.000000  -0.000000  -0.000000  -0.000000  -0.000000
  196  C 14  S    0.494785  -0.496989   0.494168  -0.496971  -0.007316
  197  C 14  S    0.013731  -0.013902   0.013876  -0.013972  -0.000251
  198  C 14  X   -0.000041  -0.000014   0.000015   0.000040   0.000042
  199  C 14  Y   -0.000068   0.000019   0.000083  -0.000095  -0.000024
  200  C 14  Z   -0.000000  -0.000000  -0.000000  -0.000000  -0.000000
  201  C 14  S   -0.004941   0.004488  -0.011268   0.009899  -0.000332
  202  C 14  X    0.000083   0.000161  -0.001413  -0.001200  -0.000246
  203  C 14  Y    0.000707  -0.000411  -0.001555   0.002075   0.000244
  204  C 14  Z   -0.000000  -0.000000  -0.000000  -0.000000  -0.000000
  205  C 14 XX   -0.000837   0.000907  -0.000528   0.000628   0.000014
  206  C 14 YY   -0.001095   0.001108  -0.000483   0.000535   0.000001
  207  C 14 ZZ   -0.001216   0.001189  -0.001036   0.001071  -0.000003
  208  C 14 XY   -0.000021   0.000002  -0.000024   0.000020  -0.000000
  209  C 14 XZ   -0.000000  -0.000000  -0.000000  -0.000000  -0.000000
  210  C 14 YZ   -0.000000  -0.000000  -0.000000  -0.000000  -0.000000
  211  H 15  S   -0.000046  -0.000023   0.000039  -0.000004   0.000024
  212  H 15  S    0.000015   0.000004  -0.000004  -0.000237  -0.000223
  213  H 16  S   -0.000046   0.000023  -0.000039  -0.000004  -0.000024
  214  H 16  S    0.000015  -0.000004   0.000004  -0.000237   0.000223
  215  H 17  S   -0.000064  -0.000000   0.000030  -0.000000  -0.000000
  216  H 17  S    0.000003   0.000000  -0.000287  -0.000000  -0.000000
  217  H 18  S   -0.000064  -0.000000  -0.000030  -0.000000  -0.000000
  218  H 18  S    0.000003   0.000000   0.000287   0.000000  -0.000000
  219  H 19  S   -0.000046  -0.000023  -0.000039   0.000004   0.000024
  220  H 19  S    0.000015   0.000004   0.000004   0.000237  -0.000223
  221  H 20  S   -0.000046   0.000023   0.000039   0.000004  -0.000024
  222  H 20  S    0.000015  -0.000004  -0.000004   0.000237   0.000223
  223  H 21  S   -0.000001   0.000010  -0.000017  -0.000027   0.000119
  224  H 21  S    0.000078   0.000088  -0.000070  -0.000182  -0.000825
  225  H 22  S   -0.000001  -0.000010   0.000017  -0.000027  -0.000119
  226  H 22  S    0.000078  -0.000088   0.000070  -0.000182   0.000825
  227  H 23  S   -0.000001   0.000010   0.000017   0.000027   0.000119
  228  H 23  S    0.000078   0.000088   0.000070   0.000182  -0.000825
  229  H 24  S   -0.000001  -0.000010  -0.000017   0.000027  -0.000119
  230  H 24  S    0.000078  -0.000088  -0.000070   0.000182   0.000825

                      6          7          8          9         10
                  -11.2350   -11.2340   -11.2340   -11.2318   -11.2318
                     A          A          A          A          A   
    1  C  1  S   -0.002804   0.007109   0.000000   0.696132   0.697511
    2  C  1  S   -0.000142   0.000089   0.000000   0.019605   0.019562
    3  C  1  X    0.000000  -0.000000   0.000055  -0.000000   0.000000
[...]
    5  C  1  Z    0.000000   0.000000 
    6  C  1  S    0.000000   0.000000 
    7  C  1  X    0.000000   0.000000 
    8  C  1  Y    0.000000   0.000000 
    9  C  1  Z    0.000000   0.000000 
   10  C  1 XX    0.000000   0.000000 
   11  C  1 YY    0.000000   0.000000 
   12  C  1 ZZ    0.000000   0.000000 
   13  C  1 XY    0.000000   0.000000 
   14  C  1 XZ    0.000000   0.000000 
   15  C  1 YZ    0.000000   0.000000 
   16  C  2  S    0.000000   0.000000 
   17  C  2  S    0.000000   0.000000 
   18  C  2  X    0.000000   0.000000 
   19  C  2  Y    0.000000   0.000000 
   20  C  2  Z    0.000000   0.000000 
   21  C  2  S    0.000000   0.000000 
   22  C  2  X    0.000000   0.000000 
   23  C  2  Y    0.000000   0.000000 
   24  C  2  Z    0.000000   0.000000 
   25  C  2 XX    0.000000   0.000000 
   26  C  2 YY    0.000000   0.000000 
   27  C  2 ZZ    0.000000   0.000000 
   28  C  2 XY    0.000000   0.000000 
   29  C  2 XZ    0.000000   0.000000 
   30  C  2 YZ    0.000000   0.000000 
   31  C  3  S    0.000000   0.000000 
   32  C  3  S    0.000000   0.000000 
   33  C  3  X    0.000000   0.000000 
   34  C  3  Y    0.000000   0.000000 
   35  C  3  Z   -0.209152  -0.315620 
   36  C  3  S    0.000000   0.000000 
   37  C  3  X    0.000000   0.000000 
   38  C  3  Y    0.000000   0.000000 
   39  C  3  Z   -0.154858  -0.285203 
   40  C  3 XX    0.000000   0.000000 
   41  C  3 YY    0.000000   0.000000 
   42  C  3 ZZ    0.000000   0.000000 
   43  C  3 XY    0.000000   0.000000 
   44  C  3 XZ   -0.014286  -0.011072 
   45  C  3 YZ   -0.011011  -0.010063 
   46  C  4  S    0.000000   0.000000 
   47  C  4  S    0.000000   0.000000 
   48  C  4  X    0.000000   0.000000 
   49  C  4  Y    0.000000   0.000000 
   50  C  4  Z    0.000000   0.000000 
   51  C  4  S    0.000000   0.000000 
   52  C  4  X    0.000000   0.000000 
   53  C  4  Y    0.000000   0.000000 
   54  C  4  Z    0.000000   0.000000 
   55  C  4 XX    0.000000   0.000000 
   56  C  4 YY    0.000000   0.000000 
   57  C  4 ZZ    0.000000   0.000000 
   58  C  4 XY    0.000000   0.000000 
   59  C  4 XZ    0.000000   0.000000 
   60  C  4 YZ    0.000000   0.000000 
   61  C  5  S    0.000000   0.000000 
   62  C  5  S    0.000000   0.000000 
   63  C  5  X    0.000000   0.000000 
   64  C  5  Y    0.000000   0.000000 
   65  C  5  Z   -0.209152   0.315620 
   66  C  5  S    0.000000   0.000000 
   67  C  5  X    0.000000   0.000000 
   68  C  5  Y    0.000000   0.000000 
   69  C  5  Z   -0.154858   0.285203 
   70  C  5 XX    0.000000   0.000000 
   71  C  5 YY    0.000000   0.000000 
   72  C  5 ZZ    0.000000   0.000000 
   73  C  5 XY    0.000000   0.000000 
   74  C  5 XZ   -0.014286   0.011072 
   75  C  5 YZ    0.011011  -0.010063 
   76  C  6  S    0.000000   0.000000 
   77  C  6  S    0.000000   0.000000 
   78  C  6  X    0.000000   0.000000 
   79  C  6  Y    0.000000   0.000000 
   80  C  6  Z    0.000000   0.000000 
   81  C  6  S    0.000000   0.000000 
   82  C  6  X    0.000000   0.000000 
   83  C  6  Y    0.000000   0.000000 
   84  C  6  Z    0.000000   0.000000 
   85  C  6 XX    0.000000   0.000000 
   86  C  6 YY    0.000000   0.000000 
   87  C  6 ZZ    0.000000   0.000000 
   88  C  6 XY    0.000000   0.000000 
   89  C  6 XZ    0.000000   0.000000 
   90  C  6 YZ    0.000000   0.000000 
   91  C  7  S    0.000000   0.000000 
   92  C  7  S    0.000000   0.000000 
   93  C  7  X    0.000000   0.000000 
   94  C  7  Y    0.000000   0.000000 
   95  C  7  Z    0.000000   0.000000 
   96  C  7  S    0.000000   0.000000 
   97  C  7  X    0.000000   0.000000 
   98  C  7  Y    0.000000   0.000000 
   99  C  7  Z    0.000000   0.000000 
  100  C  7 XX    0.000000   0.000000 
  101  C  7 YY    0.000000   0.000000 
  102  C  7 ZZ    0.000000   0.000000 
  103  C  7 XY    0.000000   0.000000 
  104  C  7 XZ    0.000000   0.000000 
  105  C  7 YZ    0.000000   0.000000 
  106  C  8  S    0.000000   0.000000 
  107  C  8  S    0.000000   0.000000 
  108  C  8  X    0.000000   0.000000 
  109  C  8  Y    0.000000   0.000000 
  110  C  8  Z    0.000000   0.000000 
  111  C  8  S    0.000000   0.000000 
  112  C  8  X    0.000000   0.000000 
  113  C  8  Y    0.000000   0.000000 
  114  C  8  Z    0.000000   0.000000 
  115  C  8 XX    0.000000   0.000000 
  116  C  8 YY    0.000000   0.000000 
  117  C  8 ZZ    0.000000   0.000000 
  118  C  8 XY    0.000000   0.000000 
  119  C  8 XZ    0.000000   0.000000 
  120  C  8 YZ    0.000000   0.000000 
  121  C  9  S    0.000000   0.000000 
  122  C  9  S    0.000000   0.000000 
  123  C  9  X    0.000000   0.000000 
  124  C  9  Y    0.000000   0.000000 
  125  C  9  Z   -0.302062  -0.225507 
  126  C  9  S    0.000000   0.000000 
  127  C  9  X    0.000000   0.000000 
  128  C  9  Y    0.000000   0.000000 
  129  C  9  Z   -0.214504  -0.212658 
  130  C  9 XX    0.000000   0.000000 
  131  C  9 YY    0.000000   0.000000 
  132  C  9 ZZ    0.000000   0.000000 
  133  C  9 XY    0.000000   0.000000 
  134  C  9 XZ    0.013318   0.016145 
  135  C  9 YZ   -0.006648   0.017810 
  136  C 10  S    0.000000   0.000000 
  137  C 10  S    0.000000   0.000000 
  138  C 10  X    0.000000   0.000000 
  139  C 10  Y    0.000000   0.000000 
  140  C 10  Z    0.000000   0.000000 
  141  C 10  S    0.000000   0.000000 
  142  C 10  X    0.000000   0.000000 
  143  C 10  Y    0.000000   0.000000 
  144  C 10  Z    0.000000   0.000000 
  145  C 10 XX    0.000000   0.000000 
  146  C 10 YY    0.000000   0.000000 
  147  C 10 ZZ    0.000000   0.000000 
  148  C 10 XY    0.000000   0.000000 
  149  C 10 XZ    0.000000   0.000000 
  150  C 10 YZ    0.000000   0.000000 
  151  C 11  S    0.000000   0.000000 
  152  C 11  S    0.000000   0.000000 
  153  C 11  X    0.000000   0.000000 
  154  C 11  Y    0.000000   0.000000 
  155  C 11  Z   -0.302062   0.225507 
  156  C 11  S    0.000000   0.000000 
  157  C 11  X    0.000000   0.000000 
  158  C 11  Y    0.000000   0.000000 
  159  C 11  Z   -0.214504   0.212658 
  160  C 11 XX    0.000000   0.000000 
  161  C 11 YY    0.000000   0.000000 
  162  C 11 ZZ    0.000000   0.000000 
  163  C 11 XY    0.000000   0.000000 
  164  C 11 XZ    0.013318  -0.016145 
  165  C 11 YZ    0.006648   0.017810 
  166  C 12  S    0.000000   0.000000 
  167  C 12  S    0.000000   0.000000 
  168  C 12  X    0.000000   0.000000 
  169  C 12  Y    0.000000   0.000000 
  170  C 12  Z    0.000000   0.000000 
  171  C 12  S    0.000000   0.000000 
  172  C 12  X    0.000000   0.000000 
  173  C 12  Y    0.000000   0.000000 
  174  C 12  Z    0.000000   0.000000 
  175  C 12 XX    0.000000   0.000000 
  176  C 12 YY    0.000000   0.000000 
  177  C 12 ZZ    0.000000   0.000000 
  178  C 12 XY    0.000000   0.000000 
  179  C 12 XZ    0.000000   0.000000 
  180  C 12 YZ    0.000000   0.000000 
  181  C 13  S    0.000000   0.000000 
  182  C 13  S    0.000000   0.000000 
  183  C 13  X    0.000000   0.000000 
  184  C 13  Y    0.000000   0.000000 
  185  C 13  Z    0.000000   0.000000 
  186  C 13  S    0.000000   0.000000 
  187  C 13  X    0.000000   0.000000 
  188  C 13  Y    0.000000   0.000000 
  189  C 13  Z    0.000000   0.000000 
  190  C 13 XX    0.000000   0.000000 
  191  C 13 YY    0.000000   0.000000 
  192  C 13 ZZ    0.000000   0.000000 
  193  C 13 XY    0.000000   0.000000 
  194  C 13 XZ    0.000000   0.000000 
  195  C 13 YZ    0.000000   0.000000 
  196  C 14  S    0.000000   0.000000 
  197  C 14  S    0.000000   0.000000 
  198  C 14  X    0.000000   0.000000 
  199  C 14  Y    0.000000   0.000000 
  200  C 14  Z    0.000000   0.000000 
  201  C 14  S    0.000000   0.000000 
  202  C 14  X    0.000000   0.000000 
  203  C 14  Y    0.000000   0.000000 
  204  C 14  Z    0.000000   0.000000 
  205  C 14 XX    0.000000   0.000000 
  206  C 14 YY    0.000000   0.000000 
  207  C 14 ZZ    0.000000   0.000000 
  208  C 14 XY    0.000000   0.000000 
  209  C 14 XZ    0.000000   0.000000 
  210  C 14 YZ    0.000000   0.000000 
  211  H 15  S    0.000000   0.000000 
  212  H 15  S    0.000000   0.000000 
  213  H 16  S    0.000000   0.000000 
  214  H 16  S    0.000000   0.000000 
  215  H 17  S    0.000000   0.000000 
  216  H 17  S    0.000000   0.000000 
  217  H 18  S    0.000000   0.000000 
  218  H 18  S    0.000000   0.000000 
  219  H 19  S    0.000000   0.000000 
  220  H 19  S    0.000000   0.000000 
  221  H 20  S    0.000000   0.000000 
  222  H 20  S    0.000000   0.000000 
  223  H 21  S    0.000000   0.000000 
  224  H 21  S    0.000000   0.000000 
  225  H 22  S    0.000000   0.000000 
  226  H 22  S    0.000000   0.000000 
  227  H 23  S    0.000000   0.000000 
  228  H 23  S    0.000000   0.000000 
  229  H 24  S    0.000000   0.000000 
  230  H 24  S    0.000000   0.000000 

 CPU     0: STEP CPU TIME=     0.05 TOTAL CPU TIME=         69.5 (      1.2 MIN)
 TOTAL WALL CLOCK TIME=         71.8 SECONDS, CPU UTILIZATION IS    96.82%
              5325771  WORDS OF DYNAMIC MEMORY USED
 EXECUTION OF GAMESS TERMINATED NORMALLY 16:24:38 29-JAN-2025    
 DDI: 263640 bytes (0.3 MB / 0 MWords) used by master data server.

 ----------------------------------------
 CPU timing information for all processes
 ========================================
 0: 57.501 + 12.36 = 69.537
 1: 48.282 + 12.795 = 61.77
 2: 46.738 + 12.281 = 59.19
 3: 48.467 + 12.646 = 61.114
 4: 46.126 + 13.205 = 59.331
 5: 46.561 + 12.338 = 58.899
 6: 48.170 + 12.693 = 60.863
 7: 47.618 + 12.550 = 60.169
 8: 45.924 + 11.830 = 57.754
 9: 47.232 + 12.492 = 59.724
 10: 46.790 + 12.375 = 59.165
 11: 44.628 + 11.855 = 56.483
 ----------------------------------------
 ddikick.x: exited gracefully.
----- accounting info -----
Files used on the master node muhka were:
-rw-r--r-- 1 barrois users     206551 Jan 29 16:23 /scratch/barrois.272758/anthracene_cas88.F05
-rw-r--r-- 1 barrois users 1018170496 Jan 29 16:23 /scratch/barrois.272758/anthracene_cas88.F08
-rw-r--r-- 1 barrois users 1018170496 Jan 29 16:23 /scratch/barrois.272758/anthracene_cas88.F08.001
-rw-r--r-- 1 barrois users 1018170496 Jan 29 16:23 /scratch/barrois.272758/anthracene_cas88.F08.002
-rw-r--r-- 1 barrois users 1018170496 Jan 29 16:23 /scratch/barrois.272758/anthracene_cas88.F08.003
-rw-r--r-- 1 barrois users 1018170496 Jan 29 16:23 /scratch/barrois.272758/anthracene_cas88.F08.004
-rw-r--r-- 1 barrois users 1018170496 Jan 29 16:23 /scratch/barrois.272758/anthracene_cas88.F08.005
-rw-r--r-- 1 barrois users 1018170496 Jan 29 16:23 /scratch/barrois.272758/anthracene_cas88.F08.006
-rw-r--r-- 1 barrois users 1018170496 Jan 29 16:23 /scratch/barrois.272758/anthracene_cas88.F08.007
-rw-r--r-- 1 barrois users 1018170496 Jan 29 16:23 /scratch/barrois.272758/anthracene_cas88.F08.008
-rw-r--r-- 1 barrois users 1018170496 Jan 29 16:23 /scratch/barrois.272758/anthracene_cas88.F08.009
-rw-r--r-- 1 barrois users 1018170496 Jan 29 16:23 /scratch/barrois.272758/anthracene_cas88.F08.010
-rw-r--r-- 1 barrois users 1018170496 Jan 29 16:23 /scratch/barrois.272758/anthracene_cas88.F08.011
-rw-r--r-- 1 barrois users     392544 Jan 29 16:24 /scratch/barrois.272758/anthracene_cas88.F09
-rw-r--r-- 1 barrois users     180016 Jan 29 16:24 /scratch/barrois.272758/anthracene_cas88.F09.001
-rw-r--r-- 1 barrois users     180016 Jan 29 16:24 /scratch/barrois.272758/anthracene_cas88.F09.002
-rw-r--r-- 1 barrois users     180016 Jan 29 16:24 /scratch/barrois.272758/anthracene_cas88.F09.003
-rw-r--r-- 1 barrois users     180016 Jan 29 16:24 /scratch/barrois.272758/anthracene_cas88.F09.004
-rw-r--r-- 1 barrois users     180016 Jan 29 16:24 /scratch/barrois.272758/anthracene_cas88.F09.005
-rw-r--r-- 1 barrois users     180016 Jan 29 16:24 /scratch/barrois.272758/anthracene_cas88.F09.006
-rw-r--r-- 1 barrois users     180016 Jan 29 16:24 /scratch/barrois.272758/anthracene_cas88.F09.007
-rw-r--r-- 1 barrois users     180016 Jan 29 16:24 /scratch/barrois.272758/anthracene_cas88.F09.008
-rw-r--r-- 1 barrois users     180016 Jan 29 16:24 /scratch/barrois.272758/anthracene_cas88.F09.009
-rw-r--r-- 1 barrois users     180016 Jan 29 16:24 /scratch/barrois.272758/anthracene_cas88.F09.010
-rw-r--r-- 1 barrois users     180016 Jan 29 16:24 /scratch/barrois.272758/anthracene_cas88.F09.011
-rw-r--r-- 1 barrois users    7787360 Jan 29 16:24 /scratch/barrois.272758/anthracene_cas88.F10
-rw-r--r-- 1 barrois users     295512 Jan 29 16:23 /scratch/barrois.272758/anthracene_cas88.F11
-rw-r--r-- 1 barrois users     295512 Jan 29 16:23 /scratch/barrois.272758/anthracene_cas88.F11.001
-rw-r--r-- 1 barrois users     295512 Jan 29 16:23 /scratch/barrois.272758/anthracene_cas88.F11.002
-rw-r--r-- 1 barrois users     295512 Jan 29 16:23 /scratch/barrois.272758/anthracene_cas88.F11.003
-rw-r--r-- 1 barrois users     295512 Jan 29 16:23 /scratch/barrois.272758/anthracene_cas88.F11.004
-rw-r--r-- 1 barrois users     295512 Jan 29 16:23 /scratch/barrois.272758/anthracene_cas88.F11.005
-rw-r--r-- 1 barrois users     295512 Jan 29 16:23 /scratch/barrois.272758/anthracene_cas88.F11.006
-rw-r--r-- 1 barrois users     295512 Jan 29 16:23 /scratch/barrois.272758/anthracene_cas88.F11.007
-rw-r--r-- 1 barrois users     295512 Jan 29 16:23 /scratch/barrois.272758/anthracene_cas88.F11.008
-rw-r--r-- 1 barrois users     295512 Jan 29 16:23 /scratch/barrois.272758/anthracene_cas88.F11.009
-rw-r--r-- 1 barrois users     295512 Jan 29 16:23 /scratch/barrois.272758/anthracene_cas88.F11.010
-rw-r--r-- 1 barrois users     295512 Jan 29 16:23 /scratch/barrois.272758/anthracene_cas88.F11.011
-rw-r--r-- 1 barrois users      14304 Jan 29 16:24 /scratch/barrois.272758/anthracene_cas88.F12
-rw-r--r-- 1 barrois users      14304 Jan 29 16:24 /scratch/barrois.272758/anthracene_cas88.F12.001
-rw-r--r-- 1 barrois users      14304 Jan 29 16:24 /scratch/barrois.272758/anthracene_cas88.F12.002
-rw-r--r-- 1 barrois users      14304 Jan 29 16:24 /scratch/barrois.272758/anthracene_cas88.F12.003
-rw-r--r-- 1 barrois users      14304 Jan 29 16:24 /scratch/barrois.272758/anthracene_cas88.F12.004
-rw-r--r-- 1 barrois users      14304 Jan 29 16:24 /scratch/barrois.272758/anthracene_cas88.F12.005
-rw-r--r-- 1 barrois users      14304 Jan 29 16:24 /scratch/barrois.272758/anthracene_cas88.F12.006
-rw-r--r-- 1 barrois users      14304 Jan 29 16:24 /scratch/barrois.272758/anthracene_cas88.F12.007
-rw-r--r-- 1 barrois users      14304 Jan 29 16:24 /scratch/barrois.272758/anthracene_cas88.F12.008
-rw-r--r-- 1 barrois users      14304 Jan 29 16:24 /scratch/barrois.272758/anthracene_cas88.F12.009
-rw-r--r-- 1 barrois users      14304 Jan 29 16:24 /scratch/barrois.272758/anthracene_cas88.F12.010
-rw-r--r-- 1 barrois users      14304 Jan 29 16:24 /scratch/barrois.272758/anthracene_cas88.F12.011
-rw-r--r-- 1 barrois users    4379776 Jan 29 16:24 /scratch/barrois.272758/anthracene_cas88.F13
-rw-r--r-- 1 barrois users    4379776 Jan 29 16:24 /scratch/barrois.272758/anthracene_cas88.F13.001
-rw-r--r-- 1 barrois users    4379776 Jan 29 16:24 /scratch/barrois.272758/anthracene_cas88.F13.002
-rw-r--r-- 1 barrois users    4379776 Jan 29 16:24 /scratch/barrois.272758/anthracene_cas88.F13.003
-rw-r--r-- 1 barrois users    4379776 Jan 29 16:24 /scratch/barrois.272758/anthracene_cas88.F13.004
-rw-r--r-- 1 barrois users    4379776 Jan 29 16:24 /scratch/barrois.272758/anthracene_cas88.F13.005
-rw-r--r-- 1 barrois users    4379776 Jan 29 16:24 /scratch/barrois.272758/anthracene_cas88.F13.006
-rw-r--r-- 1 barrois users    4379776 Jan 29 16:24 /scratch/barrois.272758/anthracene_cas88.F13.007
-rw-r--r-- 1 barrois users    4379776 Jan 29 16:24 /scratch/barrois.272758/anthracene_cas88.F13.008
-rw-r--r-- 1 barrois users    4379776 Jan 29 16:24 /scratch/barrois.272758/anthracene_cas88.F13.009
-rw-r--r-- 1 barrois users    4379776 Jan 29 16:24 /scratch/barrois.272758/anthracene_cas88.F13.010
-rw-r--r-- 1 barrois users    4379776 Jan 29 16:24 /scratch/barrois.272758/anthracene_cas88.F13.011
-rw-r--r-- 1 barrois users     400008 Jan 29 16:24 /scratch/barrois.272758/anthracene_cas88.F14
-rw-r--r-- 1 barrois users     400008 Jan 29 16:24 /scratch/barrois.272758/anthracene_cas88.F14.001
-rw-r--r-- 1 barrois users     400008 Jan 29 16:24 /scratch/barrois.272758/anthracene_cas88.F14.002
-rw-r--r-- 1 barrois users     400008 Jan 29 16:24 /scratch/barrois.272758/anthracene_cas88.F14.003
-rw-r--r-- 1 barrois users     400008 Jan 29 16:24 /scratch/barrois.272758/anthracene_cas88.F14.004
-rw-r--r-- 1 barrois users     400008 Jan 29 16:24 /scratch/barrois.272758/anthracene_cas88.F14.005
-rw-r--r-- 1 barrois users     400008 Jan 29 16:24 /scratch/barrois.272758/anthracene_cas88.F14.006
-rw-r--r-- 1 barrois users     400008 Jan 29 16:24 /scratch/barrois.272758/anthracene_cas88.F14.007
-rw-r--r-- 1 barrois users     400008 Jan 29 16:24 /scratch/barrois.272758/anthracene_cas88.F14.008
-rw-r--r-- 1 barrois users     400008 Jan 29 16:24 /scratch/barrois.272758/anthracene_cas88.F14.009
-rw-r--r-- 1 barrois users     400008 Jan 29 16:24 /scratch/barrois.272758/anthracene_cas88.F14.010
-rw-r--r-- 1 barrois users     400008 Jan 29 16:24 /scratch/barrois.272758/anthracene_cas88.F14.011
-rw-r--r-- 1 barrois users     190632 Jan 29 16:24 /scratch/barrois.272758/anthracene_cas88.F15
-rw-r--r-- 1 barrois users     190632 Jan 29 16:24 /scratch/barrois.272758/anthracene_cas88.F15.001
-rw-r--r-- 1 barrois users     190632 Jan 29 16:24 /scratch/barrois.272758/anthracene_cas88.F15.002
-rw-r--r-- 1 barrois users     190632 Jan 29 16:24 /scratch/barrois.272758/anthracene_cas88.F15.003
-rw-r--r-- 1 barrois users     190632 Jan 29 16:24 /scratch/barrois.272758/anthracene_cas88.F15.004
-rw-r--r-- 1 barrois users     190632 Jan 29 16:24 /scratch/barrois.272758/anthracene_cas88.F15.005
-rw-r--r-- 1 barrois users     190632 Jan 29 16:24 /scratch/barrois.272758/anthracene_cas88.F15.006
-rw-r--r-- 1 barrois users     190632 Jan 29 16:24 /scratch/barrois.272758/anthracene_cas88.F15.007
-rw-r--r-- 1 barrois users     190632 Jan 29 16:24 /scratch/barrois.272758/anthracene_cas88.F15.008
-rw-r--r-- 1 barrois users     190632 Jan 29 16:24 /scratch/barrois.272758/anthracene_cas88.F15.009
-rw-r--r-- 1 barrois users     190632 Jan 29 16:24 /scratch/barrois.272758/anthracene_cas88.F15.010
-rw-r--r-- 1 barrois users     190632 Jan 29 16:24 /scratch/barrois.272758/anthracene_cas88.F15.011
-rw-r--r-- 1 barrois users     190632 Jan 29 16:24 /scratch/barrois.272758/anthracene_cas88.F16
-rw-r--r-- 1 barrois users     190632 Jan 29 16:24 /scratch/barrois.272758/anthracene_cas88.F16.001
-rw-r--r-- 1 barrois users     190632 Jan 29 16:24 /scratch/barrois.272758/anthracene_cas88.F16.002
-rw-r--r-- 1 barrois users     190632 Jan 29 16:24 /scratch/barrois.272758/anthracene_cas88.F16.003
-rw-r--r-- 1 barrois users     190632 Jan 29 16:24 /scratch/barrois.272758/anthracene_cas88.F16.004
-rw-r--r-- 1 barrois users     190632 Jan 29 16:24 /scratch/barrois.272758/anthracene_cas88.F16.005
-rw-r--r-- 1 barrois users     190632 Jan 29 16:24 /scratch/barrois.272758/anthracene_cas88.F16.006
-rw-r--r-- 1 barrois users     190632 Jan 29 16:24 /scratch/barrois.272758/anthracene_cas88.F16.007
-rw-r--r-- 1 barrois users     190632 Jan 29 16:24 /scratch/barrois.272758/anthracene_cas88.F16.008
-rw-r--r-- 1 barrois users     190632 Jan 29 16:24 /scratch/barrois.272758/anthracene_cas88.F16.009
-rw-r--r-- 1 barrois users     190632 Jan 29 16:24 /scratch/barrois.272758/anthracene_cas88.F16.010
-rw-r--r-- 1 barrois users     190632 Jan 29 16:24 /scratch/barrois.272758/anthracene_cas88.F16.011
-rw-r--r-- 1 barrois users    2501136 Jan 29 16:24 /scratch/barrois.272758/anthracene_cas88.F23
-rw-r--r-- 1 barrois users          0 Jan 29 16:23 /scratch/barrois.272758/anthracene_cas88.gus
-rw-r--r-- 1 barrois users          0 Jan 29 16:23 /scratch/barrois.272758/anthracene_cas88.orb
-rw-r--r-- 1 barrois users     148321 Jan 29 16:23 /scratch/barrois.272758/anthracene_cas88.xmi
Wed Jan 29 04:24:42 PM CET 2025
0.0u 1.1s 1:16.06 1.5% 0+0k 408+1328io 0pf+0w
