----- GAMESS execution script 'rungms' -----
This job is running on host armilia
under operating system Linux at Tue Jan 28 02:03:31 PM CET 2025
Available scratch disk space (Kbyte units) at beginning of the job is
Filesystem                   1K-blocks   Used Available Use% Mounted on
/dev/mapper/vg--ctom-scratch 216359712 269472 216090240   1% /scratch
GAMESS temporary binary files will be written to /scratch/barrois.272347
GAMESS supplementary output files will be written to /home/barrois/VB/anthracene
Copying input file anthracene_HF.inp to your run's scratch directory...

 Distributed Data Interface kickoff program.
 Initiating 1 compute processes on 1 nodes to run the following command:
 /share/programs/GAMESS/gamess.00.x anthracene_HF 

          ******************************************************
          *         GAMESS VERSION =  1 MAY 2013 (R1)          *
          *             FROM IOWA STATE UNIVERSITY             *
          * M.W.SCHMIDT, K.K.BALDRIDGE, J.A.BOATZ, S.T.ELBERT, *
          *   M.S.GORDON, J.H.JENSEN, S.KOSEKI, N.MATSUNAGA,   *
          *          K.A.NGUYEN, S.J.SU, T.L.WINDUS,           *
          *       TOGETHER WITH M.DUPUIS, J.A.MONTGOMERY       *
          *         J.COMPUT.CHEM.  14, 1347-1363(1993)        *
          **************** 64 BIT LINUX VERSION ****************

  SINCE 1993, STUDENTS AND POSTDOCS WORKING AT IOWA STATE UNIVERSITY
  AND ALSO IN THEIR VARIOUS JOBS AFTER LEAVING ISU HAVE MADE IMPORTANT
  CONTRIBUTIONS TO THE CODE:
     IVANA ADAMOVIC, CHRISTINE AIKENS, YURI ALEXEEV, POOJA ARORA,
     ANDREY ASADCHEV, ROB BELL, PRADIPTA BANDYOPADHYAY, JONATHAN BENTZ,
     BRETT BODE, GALINA CHABAN, WEI CHEN, CHEOL HO CHOI, PAUL DAY,
     ALBERT DEFUSCO, TIM DUDLEY, DMITRI FEDOROV, GRAHAM FLETCHER,
     MARK FREITAG, KURT GLAESEMANN, DAN KEMP, GRANT MERRILL,
     NORIYUKI MINEZAWA, JONATHAN MULLIN, TAKESHI NAGATA,
     SEAN NEDD, HEATHER NETZLOFF, BOSILJKA NJEGIC, RYAN OLSON, MIKE PAK,
     JIM SHOEMAKER, LYUDMILA SLIPCHENKO, SAROM SOK, JIE SONG,
     TETSUYA TAKETSUGU, SIMON WEBB, SOOHAENG YOO, FEDERICO ZAHARIEV

  ADDITIONAL CODE HAS BEEN PROVIDED BY COLLABORATORS IN OTHER GROUPS:
     IOWA STATE UNIVERSITY:
          JOE IVANIC, LAIMUTIS BYTAUTAS, KLAUS RUEDENBERG
     UNIVERSITY OF TOKYO: KIMIHIKO HIRAO, TAKAHITO NAKAJIMA,
          TAKAO TSUNEDA, MUNEAKI KAMIYA, SUSUMU YANAGISAWA,
          KIYOSHI YAGI, MAHITO CHIBA, SEIKEN TOKURA, NAOAKI KAWAKAMI
     UNIVERSITY OF AARHUS: FRANK JENSEN
     UNIVERSITY OF IOWA: VISVALDAS KAIRYS, HUI LI
     NATIONAL INST. OF STANDARDS AND TECHNOLOGY: WALT STEVENS, DAVID GARMER
     UNIVERSITY OF PISA: BENEDETTA MENNUCCI, JACOPO TOMASI
     UNIVERSITY OF MEMPHIS: HENRY KURTZ, PRAKASHAN KORAMBATH
     UNIVERSITY OF ALBERTA: TOBY ZENG, MARIUSZ KLOBUKOWSKI
     UNIVERSITY OF NEW ENGLAND: MARK SPACKMAN
     MIE UNIVERSITY: HIROAKI UMEDA
     MICHIGAN STATE UNIVERSITY:
          KAROL KOWALSKI, MARTA WLOCH, JEFFREY GOUR, JESSE LUTZ,
          WEI LI, PIOTR PIECUCH
     UNIVERSITY OF SILESIA: MONIKA MUSIAL, STANISLAW KUCHARSKI
     FACULTES UNIVERSITAIRES NOTRE-DAME DE LA PAIX:
          OLIVIER QUINET, BENOIT CHAMPAGNE
     UNIVERSITY OF CALIFORNIA - SANTA BARBARA: BERNARD KIRTMAN
     INSTITUTE FOR MOLECULAR SCIENCE:
          KAZUYA ISHIMURA, MICHIO KATOUDA, AND SHIGERU NAGASE
     UNIVERSITY OF NOTRE DAME: DAN CHIPMAN
     KYUSHU UNIVERSITY:
          HARUYUKI NAKANO,
          FENG LONG GU, JACEK KORCHOWIEC, MARCIN MAKOWSKI, AND YURIKO AOKI,
          HIROTOSHI MORI AND EISAKU MIYOSHI
     PENNSYLVANIA STATE UNIVERSITY:
          TZVETELIN IORDANOV, CHET SWALINA, JONATHAN SKONE,
          SHARON HAMMES-SCHIFFER
     WASEDA UNIVERSITY:
          MASATO KOBAYASHI, TOMOKO AKAMA, TSUGUKI TOUMA,
          TAKESHI YOSHIKAWA, YASUHIRO IKABATA, HIROMI NAKAI
     NANJING UNIVERSITY: SHUHUA LI
     UNIVERSITY OF NEBRASKA:
          PEIFENG SU, DEJUN SI, NANDUN THELLAMUREGE, YALI WANG, HUI LI
     UNIVERSITY OF ZURICH:
          ROBERTO PEVERATI, KIM BALDRIDGE
     N. COPERNICUS UNIVERSITY AND JACKSON STATE UNIVERSITY:
          MARIA BARYSZ

 EXECUTION OF GAMESS BEGUN Tue Jan 28 14:03:31 2025

            ECHO OF THE FIRST FEW INPUT CARDS -
 INPUT CARD>!! filename=anthracene                                                          
 INPUT CARD>!                                                                               
 INPUT CARD>!   GAMESS Calculation input file                                               
 INPUT CARD>!                                                                               
 INPUT CARD>!                                                                               
 INPUT CARD> $CONTRL SCFTYP=RHF MAXIT=200 RUNTYP=OPTIMIZE                                   
 INPUT CARD>         COORD=UNIQUE MULT=1                                                    
 INPUT CARD>         ICHARG=0                                                               
 INPUT CARD>         MOLPLT=.FALSE. PLTORB=.FALSE.  $END                                    
 INPUT CARD> $SYSTEM TIMLIM=2879 MWORDS=250 MEMDDI=344  $END                                
 INPUT CARD>                                                                                
 INPUT CARD> $STATPT OPTTOL=0.0005 NSTEP=999 $END                                           
 INPUT CARD> $STATPT IHREP=0  $END                                                          
 INPUT CARD>                                                                                
 INPUT CARD> $BASIS  GBASIS=N31 NGAUSS=6                                                    
 INPUT CARD>         NDFUNC=1   NPFUNC=0  $END                                              
 INPUT CARD>                                                                                
 INPUT CARD> $SCF    DIRSCF=.T. $END                                                        
 INPUT CARD> $GUESS  GUESS=HUCKEL  $END                                                     
 INPUT CARD>                                                                                
 INPUT CARD> $DATA                                                                          
 INPUT CARD>                                                                                
 INPUT CARD>  C1                                                                            
 INPUT CARD>  C  6.0  0.00000    1.40119    -0.00000                                        
 INPUT CARD>  C  6.0  0.00000   -1.40119     0.00000                                        
 INPUT CARD>  C  6.0  2.47682   -1.40470     0.00000                                        
 INPUT CARD>  C  6.0 -2.47682    1.40470    -0.00000                                        
 INPUT CARD>  C  6.0  2.47682    1.40470    -0.00000                                        
 INPUT CARD>  C  6.0 -2.47682   -1.40470    -0.00000                                        
 INPUT CARD>  C  6.0 -1.22202    0.72155    -0.00000                                        
 INPUT CARD>  C  6.0  1.22202   -0.72155     0.00000                                        
 INPUT CARD>  C  6.0  3.65503   -0.71227     0.00000                                        
 INPUT CARD>  C  6.0 -3.65503    0.71227    -0.00000                                        
 INPUT CARD>  C  6.0  3.65503    0.71227    -0.00000                                        
 INPUT CARD>  C  6.0 -3.65503   -0.71227    -0.00000                                        
 INPUT CARD>  C  6.0  1.22202    0.72155     0.00000                                        
 INPUT CARD>  C  6.0 -1.22202   -0.72155     0.00000                                        
 INPUT CARD>  H  1.0  2.47711    2.49085    -0.00000                                        
 INPUT CARD>  H  1.0 -2.47711   -2.49085    -0.00000                                        
 INPUT CARD>  H  1.0  0.00000    2.48817    -0.00000                                        
 INPUT CARD>  H  1.0  0.00000   -2.48817     0.00000                                        
 INPUT CARD>  H  1.0  2.47711   -2.49085     0.00000                                        
 INPUT CARD>  H  1.0 -2.47711    2.49085    -0.00000                                        
 INPUT CARD>  H  1.0  4.60051   -1.24509     0.00000                                        
 INPUT CARD>  H  1.0 -4.60051    1.24509    -0.00000                                        
 INPUT CARD>  H  1.0  4.60051    1.24509    -0.00000                                        
 INPUT CARD>  H  1.0 -4.60051   -1.24509    -0.00000                                        
 INPUT CARD> $END                                                                           
 INPUT CARD>                                                                                
  250000000 WORDS OF MEMORY AVAILABLE

     BASIS OPTIONS
     -------------
     GBASIS=N31          IGAUSS=       6      POLAR=POPN31  
     NDFUNC=       1     NFFUNC=       0     DIFFSP=       F
     NPFUNC=       0      DIFFS=       F     BASNAM=        


     RUN TITLE
     ---------
                                                                                 

 THE POINT GROUP OF THE MOLECULE IS C1      
 THE ORDER OF THE PRINCIPAL AXIS IS     0

 ATOM      ATOMIC                      COORDINATES (BOHR)
           CHARGE         X                   Y                   Z
 C           6.0     0.0000000000        2.6478651567       -0.0000000000
 C           6.0     0.0000000000       -2.6478651567        0.0000000000
 C           6.0     4.6805111209       -2.6544980950        0.0000000000
 C           6.0    -4.6805111209        2.6544980950       -0.0000000000
 C           6.0     4.6805111209        2.6544980950       -0.0000000000
 C           6.0    -4.6805111209       -2.6544980950       -0.0000000000
 C           6.0    -2.3092829515        1.3635317864       -0.0000000000
 C           6.0     2.3092829515       -1.3635317864        0.0000000000
 C           6.0     6.9070051769       -1.3459951293        0.0000000000
 C           6.0    -6.9070051769        1.3459951293       -0.0000000000
 C           6.0     6.9070051769        1.3459951293       -0.0000000000
 C           6.0    -6.9070051769       -1.3459951293       -0.0000000000
 C           6.0     2.3092829515        1.3635317864        0.0000000000
 C           6.0    -2.3092829515       -1.3635317864        0.0000000000
 H           1.0     4.6810591414        4.7070239765       -0.0000000000
 H           1.0    -4.6810591414       -4.7070239765       -0.0000000000
 H           1.0     0.0000000000        4.7019595109       -0.0000000000
 H           1.0     0.0000000000       -4.7019595109        0.0000000000
 H           1.0     4.6810591414       -4.7070239765        0.0000000000
 H           1.0    -4.6810591414        4.7070239765       -0.0000000000
 H           1.0     8.6937033038       -2.3528789301        0.0000000000
 H           1.0    -8.6937033038        2.3528789301       -0.0000000000
 H           1.0     8.6937033038        2.3528789301       -0.0000000000
 H           1.0    -8.6937033038       -2.3528789301       -0.0000000000

          INTERNUCLEAR DISTANCES (ANGS.)
          ------------------------------

                1 C          2 C          3 C          4 C          5 C     

   1 C       0.0000000    2.8023800 *  3.7426803    2.4768225 *  2.4768225 *
   2 C       2.8023800 *  0.0000000    2.4768225 *  3.7426803    3.7426803  
   3 C       3.7426803    2.4768225 *  0.0000000    5.6948466    2.8094000 *
   4 C       2.4768225 *  3.7426803    5.6948466    0.0000000    4.9536400  
   5 C       2.4768225 *  3.7426803    2.8094000 *  4.9536400    0.0000000  
   6 C       3.7426803    2.4768225 *  4.9536400    2.8094000 *  5.6948466  
   7 C       1.3983002 *  2.4493587 *  4.2664220    1.4287116 *  3.7613975  
   8 C       2.4493587 *  1.3983002 *  1.4287116 *  4.2664220    2.4688990 *
   9 C       4.2220798    3.7193891    1.3666156 *  6.4869983    2.4227548 *
  10 C       3.7193891    4.2220798    6.4869983    1.3666156 *  6.1708220  
  11 C       3.7193891    4.2220798    2.4227548 *  6.1708220    1.3666156 *
  12 C       4.2220798    3.7193891    6.1708220    2.4227548 *  6.4869983  
  13 C       1.3983002 *  2.4493587 *  2.4688990 *  3.7613975    1.4287116 *
  14 C       2.4493587 *  1.3983002 *  3.7613975    2.4688990 *  4.2664220  
  15 H       2.7061842 *  4.6134639    3.8955500    5.0716017    1.0861500 *
  16 H       4.6134639    2.7061842 *  5.0716017    3.8955500    6.3021212  
  17 H       1.0869800 *  3.8893600    4.6140085    2.7034320 *  2.7034320 *
  18 H       3.8893600    1.0869800 *  2.7034320 *  4.6140085    4.6140085  
  19 H       4.6134639    2.7061842 *  1.0861500 *  6.3021212    3.8955500  
  20 H       2.7061842 *  4.6134639    6.3021212    1.0861500 *  5.0716017  
  21 H       5.3073054    4.6031576    2.1296795 *  7.5571150    3.3957983  
  22 H       4.6031576    5.3073054    7.5571150    2.1296795 *  7.0791296  
  23 H       4.6031576    5.3073054    3.3957983    7.0791296    2.1296795 *
  24 H       5.3073054    4.6031576    7.0791296    3.3957983    7.5571150  

                6 C          7 C          8 C          9 C         10 C     

   1 C       3.7426803    1.3983002 *  2.4493587 *  4.2220798    3.7193891  
   2 C       2.4768225 *  2.4493587 *  1.3983002 *  3.7193891    4.2220798  
   3 C       4.9536400    4.2664220    1.4287116 *  1.3666156 *  6.4869983  
   4 C       2.8094000 *  1.4287116 *  4.2664220    6.4869983    1.3666156 *
   5 C       5.6948466    3.7613975    2.4688990 *  2.4227548 *  6.1708220  
   6 C       0.0000000    2.4688990 *  3.7613975    6.1708220    2.4227548 *
   7 C       2.4688990 *  0.0000000    2.8382863 *  5.0834493    2.4330277 *
   8 C       3.7613975    2.8382863 *  0.0000000    2.4330277 *  5.0834493  
   9 C       6.1708220    5.0834493    2.4330277 *  0.0000000    7.4475695  
  10 C       2.4227548 *  2.4330277 *  5.0834493    7.4475695    0.0000000  
  11 C       6.4869983    4.8770588    2.8240711 *  1.4245400 *  7.3100600  
  12 C       1.3666156 *  2.8240711 *  4.8770588    7.3100600    1.4245400 *
  13 C       4.2664220    2.4440400 *  1.4431000 *  2.8240711 *  4.8770588  
  14 C       1.4287116 *  1.4431000 *  2.4440400 *  4.8770588    2.8240711 *
  15 H       6.3021212    4.1004860    3.4488788    3.4128395    6.3848640  
  16 H       1.0861500 *  3.4488788    4.1004860    6.3848640    3.4128395  
  17 H       4.6140085    2.1480873 *  3.4344775    4.8581952    4.0636271  
  18 H       2.7034320 *  3.4344775    2.1480873 *  4.0636271    4.8581952  
  19 H       5.0716017    4.8992935    2.1692564 *  2.1332703 *  6.9183176  
  20 H       3.8955500    2.1692564 *  4.8992935    6.9183176    2.1332703 *
  21 H       7.0791296    6.1456919    3.4188139    1.0852786 *  8.4844092  
  22 H       3.3957983    3.4188139    6.1456919    8.4844092    1.0852786 *
  23 H       7.5571150    5.8460200    3.9092029    2.1737504 *  8.2727165  
  24 H       2.1296795 *  3.9092029    5.8460200    8.2727165    2.1737504 *

               11 C         12 C         13 C         14 C         15 H     

   1 C       3.7193891    4.2220798    1.3983002 *  2.4493587 *  2.7061842 *
   2 C       4.2220798    3.7193891    2.4493587 *  1.3983002 *  4.6134639  
   3 C       2.4227548 *  6.1708220    2.4688990 *  3.7613975    3.8955500  
   4 C       6.1708220    2.4227548 *  3.7613975    2.4688990 *  5.0716017  
   5 C       1.3666156 *  6.4869983    1.4287116 *  4.2664220    1.0861500 *
   6 C       6.4869983    1.3666156 *  4.2664220    1.4287116 *  6.3021212  
   7 C       4.8770588    2.8240711 *  2.4440400 *  1.4431000 *  4.1004860  
   8 C       2.8240711 *  4.8770588    1.4431000 *  2.4440400 *  3.4488788  
   9 C       1.4245400 *  7.3100600    2.8240711 *  4.8770588    3.4128395  
  10 C       7.3100600    1.4245400 *  4.8770588    2.8240711 *  6.3848640  
  11 C       0.0000000    7.4475695    2.4330277 *  5.0834493    2.1332703 *
  12 C       7.4475695    0.0000000    5.0834493    2.4330277 *  6.9183176  
  13 C       2.4330277 *  5.0834493    0.0000000    2.8382863 *  2.1692564 *
  14 C       5.0834493    2.4330277 *  2.8382863 *  0.0000000    4.8992935  
  15 H       2.1332703 *  6.9183176    2.1692564 *  4.8992935    0.0000000  
  16 H       6.9183176    2.1332703 *  4.8992935    2.1692564 *  7.0257833  
  17 H       4.0636271    4.8581952    2.1480873 *  3.4344775    2.4771114 *
  18 H       4.8581952    4.0636271    3.4344775    2.1480873 *  5.5611792  
  19 H       3.4128395    6.3848640    3.4488788    4.1004860    4.9817000  
  20 H       6.3848640    3.4128395    4.1004860    3.4488788    4.9542200  
  21 H       2.1737504 *  8.2727165    3.9092029    5.8460200    4.2972172  
  22 H       8.2727165    2.1737504 *  5.8460200    3.9092029    7.1864193  
  23 H       1.0852786 *  8.4844092    3.4188139    6.1456919    2.4618581 *
  24 H       8.4844092    1.0852786 *  6.1456919    3.4188139    8.0031214  

               16 H         17 H         18 H         19 H         20 H     

   1 C       4.6134639    1.0869800 *  3.8893600    4.6134639    2.7061842 *
   2 C       2.7061842 *  3.8893600    1.0869800 *  2.7061842 *  4.6134639  
   3 C       5.0716017    4.6140085    2.7034320 *  1.0861500 *  6.3021212  
   4 C       3.8955500    2.7034320 *  4.6140085    6.3021212    1.0861500 *
   5 C       6.3021212    2.7034320 *  4.6140085    3.8955500    5.0716017  
   6 C       1.0861500 *  4.6140085    2.7034320 *  5.0716017    3.8955500  
   7 C       3.4488788    2.1480873 *  3.4344775    4.8992935    2.1692564 *
   8 C       4.1004860    3.4344775    2.1480873 *  2.1692564 *  4.8992935  
   9 C       6.3848640    4.8581952    4.0636271    2.1332703 *  6.9183176  
  10 C       3.4128395    4.0636271    4.8581952    6.9183176    2.1332703 *
  11 C       6.9183176    4.0636271    4.8581952    3.4128395    6.3848640  
  12 C       2.1332703 *  4.8581952    4.0636271    6.3848640    3.4128395  
  13 C       4.8992935    2.1480873 *  3.4344775    3.4488788    4.1004860  
  14 C       2.1692564 *  3.4344775    2.1480873 *  4.1004860    3.4488788  
  15 H       7.0257833    2.4771114 *  5.5611792    4.9817000    4.9542200  
  16 H       0.0000000    5.5611792    2.4771114 *  4.9542200    4.9817000  
  17 H       5.5611792    0.0000000    4.9763400    5.5611792    2.4771114 *
  18 H       2.4771114 *  4.9763400    0.0000000    2.4771114 *  5.5611792  
  19 H       4.9542200    5.5611792    2.4771114 *  0.0000000    7.0257833  
  20 H       4.9817000    2.4771114 *  5.5611792    7.0257833    0.0000000  
  21 H       7.1864193    5.9246875    4.7654947    2.4618581 *  8.0031214  
  22 H       4.2972172    4.7654947    5.9246875    8.0031214    2.4618581 *
  23 H       8.0031214    4.7654947    5.9246875    4.2972172    7.1864193  
  24 H       2.4618581 *  5.9246875    4.7654947    7.1864193    4.2972172  

               21 H         22 H         23 H         24 H     

   1 C       5.3073054    4.6031576    4.6031576    5.3073054  
   2 C       4.6031576    5.3073054    5.3073054    4.6031576  
   3 C       2.1296795 *  7.5571150    3.3957983    7.0791296  
   4 C       7.5571150    2.1296795 *  7.0791296    3.3957983  
   5 C       3.3957983    7.0791296    2.1296795 *  7.5571150  
   6 C       7.0791296    3.3957983    7.5571150    2.1296795 *
   7 C       6.1456919    3.4188139    5.8460200    3.9092029  
   8 C       3.4188139    6.1456919    3.9092029    5.8460200  
   9 C       1.0852786 *  8.4844092    2.1737504 *  8.2727165  
  10 C       8.4844092    1.0852786 *  8.2727165    2.1737504 *
  11 C       2.1737504 *  8.2727165    1.0852786 *  8.4844092  
  12 C       8.2727165    2.1737504 *  8.4844092    1.0852786 *
  13 C       3.9092029    5.8460200    3.4188139    6.1456919  
  14 C       5.8460200    3.9092029    6.1456919    3.4188139  
  15 H       4.2972172    7.1864193    2.4618581 *  8.0031214  
  16 H       7.1864193    4.2972172    8.0031214    2.4618581 *
  17 H       5.9246875    4.7654947    4.7654947    5.9246875  
  18 H       4.7654947    5.9246875    5.9246875    4.7654947  
  19 H       2.4618581 *  8.0031214    4.2972172    7.1864193  
  20 H       8.0031214    2.4618581 *  7.1864193    4.2972172  
  21 H       0.0000000    9.5320389    2.4901800 *  9.2010200  
  22 H       9.5320389    0.0000000    9.2010200    2.4901800 *
  23 H       2.4901800 *  9.2010200    0.0000000    9.5320389  
  24 H       9.2010200    2.4901800 *  9.5320389    0.0000000  

  * ... LESS THAN  3.000


     ATOMIC BASIS SET
     ----------------
 THE CONTRACTED PRIMITIVE FUNCTIONS HAVE BEEN UNNORMALIZED
 THE CONTRACTED BASIS FUNCTIONS ARE NOW NORMALIZED TO UNITY

  SHELL TYPE  PRIMITIVE        EXPONENT          CONTRACTION COEFFICIENT(S)

 C         

      1   S       1          3047.5248800    0.001834737132
      1   S       2           457.3695180    0.014037322813
      1   S       3           103.9486850    0.068842622264
      1   S       4            29.2101553    0.232184443216
      1   S       5             9.2866630    0.467941348435
      1   S       6             3.1639270    0.362311985337

      2   L       7             7.8682723   -0.119332419775    0.068999066591
      2   L       8             1.8812885   -0.160854151696    0.316423960957
      2   L       9             0.5442493    1.143456437840    0.744308290898

      3   L      10             0.1687145    1.000000000000    1.000000000000

      4   D      11             0.8000000    1.000000000000

 C         

      5   S      12          3047.5248800    0.001834737132
      5   S      13           457.3695180    0.014037322813
      5   S      14           103.9486850    0.068842622264
      5   S      15            29.2101553    0.232184443216
      5   S      16             9.2866630    0.467941348435
      5   S      17             3.1639270    0.362311985337

      6   L      18             7.8682723   -0.119332419775    0.068999066591
      6   L      19             1.8812885   -0.160854151696    0.316423960957
      6   L      20             0.5442493    1.143456437840    0.744308290898

      7   L      21             0.1687145    1.000000000000    1.000000000000

      8   D      22             0.8000000    1.000000000000

 C         

      9   S      23          3047.5248800    0.001834737132
      9   S      24           457.3695180    0.014037322813
      9   S      25           103.9486850    0.068842622264
      9   S      26            29.2101553    0.232184443216
      9   S      27             9.2866630    0.467941348435
      9   S      28             3.1639270    0.362311985337

     10   L      29             7.8682723   -0.119332419775    0.068999066591
     10   L      30             1.8812885   -0.160854151696    0.316423960957
     10   L      31             0.5442493    1.143456437840    0.744308290898

     11   L      32             0.1687145    1.000000000000    1.000000000000

     12   D      33             0.8000000    1.000000000000

 C         

     13   S      34          3047.5248800    0.001834737132
     13   S      35           457.3695180    0.014037322813
     13   S      36           103.9486850    0.068842622264
     13   S      37            29.2101553    0.232184443216
     13   S      38             9.2866630    0.467941348435
     13   S      39             3.1639270    0.362311985337

     14   L      40             7.8682723   -0.119332419775    0.068999066591
     14   L      41             1.8812885   -0.160854151696    0.316423960957
     14   L      42             0.5442493    1.143456437840    0.744308290898

     15   L      43             0.1687145    1.000000000000    1.000000000000

     16   D      44             0.8000000    1.000000000000

 C         

     17   S      45          3047.5248800    0.001834737132
     17   S      46           457.3695180    0.014037322813
     17   S      47           103.9486850    0.068842622264
     17   S      48            29.2101553    0.232184443216
     17   S      49             9.2866630    0.467941348435
     17   S      50             3.1639270    0.362311985337

     18   L      51             7.8682723   -0.119332419775    0.068999066591
     18   L      52             1.8812885   -0.160854151696    0.316423960957
     18   L      53             0.5442493    1.143456437840    0.744308290898

     19   L      54             0.1687145    1.000000000000    1.000000000000

     20   D      55             0.8000000    1.000000000000

 C         

     21   S      56          3047.5248800    0.001834737132
     21   S      57           457.3695180    0.014037322813
     21   S      58           103.9486850    0.068842622264
     21   S      59            29.2101553    0.232184443216
     21   S      60             9.2866630    0.467941348435
     21   S      61             3.1639270    0.362311985337

     22   L      62             7.8682723   -0.119332419775    0.068999066591
     22   L      63             1.8812885   -0.160854151696    0.316423960957
     22   L      64             0.5442493    1.143456437840    0.744308290898

     23   L      65             0.1687145    1.000000000000    1.000000000000

     24   D      66             0.8000000    1.000000000000

 C         

     25   S      67          3047.5248800    0.001834737132
     25   S      68           457.3695180    0.014037322813
     25   S      69           103.9486850    0.068842622264
     25   S      70            29.2101553    0.232184443216
     25   S      71             9.2866630    0.467941348435
     25   S      72             3.1639270    0.362311985337

     26   L      73             7.8682723   -0.119332419775    0.068999066591
     26   L      74             1.8812885   -0.160854151696    0.316423960957
     26   L      75             0.5442493    1.143456437840    0.744308290898

     27   L      76             0.1687145    1.000000000000    1.000000000000

     28   D      77             0.8000000    1.000000000000

 C         

     29   S      78          3047.5248800    0.001834737132
     29   S      79           457.3695180    0.014037322813
     29   S      80           103.9486850    0.068842622264
     29   S      81            29.2101553    0.232184443216
     29   S      82             9.2866630    0.467941348435
     29   S      83             3.1639270    0.362311985337

     30   L      84             7.8682723   -0.119332419775    0.068999066591
     30   L      85             1.8812885   -0.160854151696    0.316423960957
     30   L      86             0.5442493    1.143456437840    0.744308290898

     31   L      87             0.1687145    1.000000000000    1.000000000000

     32   D      88             0.8000000    1.000000000000

 C         

     33   S      89          3047.5248800    0.001834737132
     33   S      90           457.3695180    0.014037322813
     33   S      91           103.9486850    0.068842622264
     33   S      92            29.2101553    0.232184443216
     33   S      93             9.2866630    0.467941348435
     33   S      94             3.1639270    0.362311985337

     34   L      95             7.8682723   -0.119332419775    0.068999066591
     34   L      96             1.8812885   -0.160854151696    0.316423960957
     34   L      97             0.5442493    1.143456437840    0.744308290898

     35   L      98             0.1687145    1.000000000000    1.000000000000

     36   D      99             0.8000000    1.000000000000

 C         

     37   S     100          3047.5248800    0.001834737132
     37   S     101           457.3695180    0.014037322813
     37   S     102           103.9486850    0.068842622264
     37   S     103            29.2101553    0.232184443216
     37   S     104             9.2866630    0.467941348435
     37   S     105             3.1639270    0.362311985337

     38   L     106             7.8682723   -0.119332419775    0.068999066591
     38   L     107             1.8812885   -0.160854151696    0.316423960957
     38   L     108             0.5442493    1.143456437840    0.744308290898

     39   L     109             0.1687145    1.000000000000    1.000000000000

     40   D     110             0.8000000    1.000000000000

 C         

     41   S     111          3047.5248800    0.001834737132
     41   S     112           457.3695180    0.014037322813
     41   S     113           103.9486850    0.068842622264
     41   S     114            29.2101553    0.232184443216
     41   S     115             9.2866630    0.467941348435
     41   S     116             3.1639270    0.362311985337

     42   L     117             7.8682723   -0.119332419775    0.068999066591
     42   L     118             1.8812885   -0.160854151696    0.316423960957
     42   L     119             0.5442493    1.143456437840    0.744308290898

     43   L     120             0.1687145    1.000000000000    1.000000000000

     44   D     121             0.8000000    1.000000000000

 C         

     45   S     122          3047.5248800    0.001834737132
     45   S     123           457.3695180    0.014037322813
     45   S     124           103.9486850    0.068842622264
     45   S     125            29.2101553    0.232184443216
     45   S     126             9.2866630    0.467941348435
     45   S     127             3.1639270    0.362311985337

     46   L     128             7.8682723   -0.119332419775    0.068999066591
     46   L     129             1.8812885   -0.160854151696    0.316423960957
     46   L     130             0.5442493    1.143456437840    0.744308290898

     47   L     131             0.1687145    1.000000000000    1.000000000000

     48   D     132             0.8000000    1.000000000000

 C         

     49   S     133          3047.5248800    0.001834737132
     49   S     134           457.3695180    0.014037322813
     49   S     135           103.9486850    0.068842622264
     49   S     136            29.2101553    0.232184443216
     49   S     137             9.2866630    0.467941348435
     49   S     138             3.1639270    0.362311985337

     50   L     139             7.8682723   -0.119332419775    0.068999066591
     50   L     140             1.8812885   -0.160854151696    0.316423960957
     50   L     141             0.5442493    1.143456437840    0.744308290898

     51   L     142             0.1687145    1.000000000000    1.000000000000

     52   D     143             0.8000000    1.000000000000

 C         

     53   S     144          3047.5248800    0.001834737132
     53   S     145           457.3695180    0.014037322813
     53   S     146           103.9486850    0.068842622264
     53   S     147            29.2101553    0.232184443216
     53   S     148             9.2866630    0.467941348435
     53   S     149             3.1639270    0.362311985337

     54   L     150             7.8682723   -0.119332419775    0.068999066591
     54   L     151             1.8812885   -0.160854151696    0.316423960957
     54   L     152             0.5442493    1.143456437840    0.744308290898

     55   L     153             0.1687145    1.000000000000    1.000000000000

     56   D     154             0.8000000    1.000000000000

 H         

     57   S     155            18.7311370    0.033494604338
     57   S     156             2.8253944    0.234726953484
     57   S     157             0.6401217    0.813757326146

     58   S     158             0.1612778    1.000000000000

 H         

     59   S     159            18.7311370    0.033494604338
     59   S     160             2.8253944    0.234726953484
     59   S     161             0.6401217    0.813757326146

     60   S     162             0.1612778    1.000000000000

 H         

     61   S     163            18.7311370    0.033494604338
     61   S     164             2.8253944    0.234726953484
     61   S     165             0.6401217    0.813757326146

     62   S     166             0.1612778    1.000000000000

 H         

     63   S     167            18.7311370    0.033494604338
     63   S     168             2.8253944    0.234726953484
     63   S     169             0.6401217    0.813757326146

     64   S     170             0.1612778    1.000000000000

 H         

     65   S     171            18.7311370    0.033494604338
     65   S     172             2.8253944    0.234726953484
     65   S     173             0.6401217    0.813757326146

     66   S     174             0.1612778    1.000000000000

 H         

     67   S     175            18.7311370    0.033494604338
     67   S     176             2.8253944    0.234726953484
     67   S     177             0.6401217    0.813757326146

     68   S     178             0.1612778    1.000000000000

 H         

     69   S     179            18.7311370    0.033494604338
     69   S     180             2.8253944    0.234726953484
     69   S     181             0.6401217    0.813757326146

     70   S     182             0.1612778    1.000000000000

 H         

     71   S     183            18.7311370    0.033494604338
     71   S     184             2.8253944    0.234726953484
     71   S     185             0.6401217    0.813757326146

     72   S     186             0.1612778    1.000000000000

 H         

     73   S     187            18.7311370    0.033494604338
     73   S     188             2.8253944    0.234726953484
     73   S     189             0.6401217    0.813757326146

     74   S     190             0.1612778    1.000000000000

 H         

     75   S     191            18.7311370    0.033494604338
     75   S     192             2.8253944    0.234726953484
     75   S     193             0.6401217    0.813757326146

     76   S     194             0.1612778    1.000000000000

 TOTAL NUMBER OF BASIS SET SHELLS             =   76
 NUMBER OF CARTESIAN GAUSSIAN BASIS FUNCTIONS =  230
 NUMBER OF ELECTRONS                          =   94
 CHARGE OF MOLECULE                           =    0
 SPIN MULTIPLICITY                            =    1
 NUMBER OF OCCUPIED ORBITALS (ALPHA)          =   47
 NUMBER OF OCCUPIED ORBITALS (BETA )          =   47
 TOTAL NUMBER OF ATOMS                        =   24
 THE NUCLEAR REPULSION ENERGY IS      766.3548992199

     $CONTRL OPTIONS
     ---------------
 SCFTYP=RHF          RUNTYP=OPTIMIZE     EXETYP=RUN     
 MPLEVL=       0     CITYP =NONE         CCTYP =NONE         VBTYP =NONE    
 DFTTYP=NONE         TDDFT =NONE    
 MULT  =       1     ICHARG=       0     NZVAR =       0     COORD =UNIQUE  
 PP    =NONE         RELWFN=NONE         LOCAL =NONE         NUMGRD=       F
 ISPHER=      -1     NOSYM =       0     MAXIT =     200     UNITS =ANGS    
 PLTORB=       F     MOLPLT=       F     AIMPAC=       F     FRIEND=        
 NPRINT=       7     IREST =       0     GEOM  =INPUT   
 NORMF =       0     NORMP =       0     ITOL  =      20     ICUT  =       9
 INTTYP=BEST         GRDTYP=BEST         QMTTOL= 1.0E-06

     $SYSTEM OPTIONS
     ---------------
  REPLICATED MEMORY=   250000000 WORDS (ON EVERY NODE).
 DISTRIBUTED MEMDDI=         344 MILLION WORDS IN AGGREGATE,
 MEMDDI DISTRIBUTED OVER   1 PROCESSORS IS   344000000 WORDS/PROCESSOR.
 TOTAL MEMORY REQUESTED ON EACH PROCESSOR=   594000000 WORDS.
 TIMLIM=        2879.00 MINUTES, OR       2.0 DAYS.
 PARALL= F  BALTYP=  DLB     KDIAG=    0  COREFL= F
 MXSEQ2=     300 MXSEQ3=     150

          ----------------
          PROPERTIES INPUT
          ----------------

     MOMENTS            FIELD           POTENTIAL          DENSITY
 IEMOM =       1   IEFLD =       0   IEPOT =       0   IEDEN =       0
 WHERE =COMASS     WHERE =NUCLEI     WHERE =NUCLEI     WHERE =NUCLEI  
 OUTPUT=BOTH       OUTPUT=BOTH       OUTPUT=BOTH       OUTPUT=BOTH    
 IEMINT=       0   IEFINT=       0                     IEDINT=       0
                                                       MORB  =       0
          EXTRAPOLATION IN EFFECT
          SOSCF IN EFFECT
 ORBITAL PRINTING OPTION: NPREO=     1   230     2     1

     -------------------------------
     INTEGRAL TRANSFORMATION OPTIONS
     -------------------------------
     NWORD  =            0
     CUTOFF = 1.0E-09     MPTRAN =       0
     DIRTRF =       T     AOINTS =DUP     

          ----------------------
          INTEGRAL INPUT OPTIONS
          ----------------------
 NOPK  =       1 NORDER=       0 SCHWRZ=       T

     ------------------------------------------
     THE POINT GROUP IS C1 , NAXIS= 0, ORDER= 1
     ------------------------------------------

     DIMENSIONS OF THE SYMMETRY SUBSPACES ARE
 A   =  230

 ..... DONE SETTING UP THE RUN .....
 STEP CPU TIME =     0.02 TOTAL CPU TIME =        0.0 (    0.0 MIN)
 TOTAL WALL CLOCK TIME=        0.6 SECONDS, CPU UTILIZATION IS   3.33%


          -----------------------------
          STATIONARY POINT LOCATION RUN
          -----------------------------

 OBTAINING INITIAL HESSIAN, HESS=GUESS   
 CARTESIAN COORDINATE OPTIMIZATION USING BADGER'S RULE FORCE CONSTANT GUESS

          PARAMETERS CONTROLLING GEOMETRY SEARCH ARE
          METHOD =QA                  UPHESS =BFGS    
          NNEG   =         0          NFRZ   =         0
          NSTEP  =       999          IFOLOW =         1
          HESS   =GUESS               RESTAR =         F
          IHREP  =         0          HSSEND =         F
          NPRT   =         0          NPUN   =         0
          OPTTOL = 5.000E-04          RMIN   = 1.500E-03
          RMAX   = 1.000E-01          RLIM   = 7.000E-02
          DXMAX  = 3.000E-01          PURIFY =         F
          MOVIE  =         F          TRUPD  =         T
          TRMAX  = 5.000E-01          TRMIN  = 5.000E-02
          ITBMAT =         5          STPT   =         F
          STSTEP = 1.000E-02          PROJCT=          T

 BEGINNING GEOMETRY SEARCH POINT NSERCH=   0 ...

 COORDINATES OF ALL ATOMS ARE (ANGS)
   ATOM   CHARGE       X              Y              Z
 ------------------------------------------------------------
 C           6.0   0.0000000000   1.4011900000  -0.0000000000
 C           6.0   0.0000000000  -1.4011900000   0.0000000000
 C           6.0   2.4768200000  -1.4047000000   0.0000000000
 C           6.0  -2.4768200000   1.4047000000  -0.0000000000
 C           6.0   2.4768200000   1.4047000000  -0.0000000000
 C           6.0  -2.4768200000  -1.4047000000  -0.0000000000
 C           6.0  -1.2220200000   0.7215500000  -0.0000000000
 C           6.0   1.2220200000  -0.7215500000   0.0000000000
 C           6.0   3.6550300000  -0.7122700000   0.0000000000
 C           6.0  -3.6550300000   0.7122700000  -0.0000000000
 C           6.0   3.6550300000   0.7122700000  -0.0000000000
 C           6.0  -3.6550300000  -0.7122700000  -0.0000000000
 C           6.0   1.2220200000   0.7215500000   0.0000000000
 C           6.0  -1.2220200000  -0.7215500000   0.0000000000
 H           1.0   2.4771100000   2.4908500000  -0.0000000000
 H           1.0  -2.4771100000  -2.4908500000  -0.0000000000
 H           1.0   0.0000000000   2.4881700000  -0.0000000000
 H           1.0   0.0000000000  -2.4881700000   0.0000000000
 H           1.0   2.4771100000  -2.4908500000   0.0000000000
 H           1.0  -2.4771100000   2.4908500000  -0.0000000000
 H           1.0   4.6005100000  -1.2450900000   0.0000000000
 H           1.0  -4.6005100000   1.2450900000  -0.0000000000
 H           1.0   4.6005100000   1.2450900000  -0.0000000000
 H           1.0  -4.6005100000  -1.2450900000  -0.0000000000

          ********************
          1 ELECTRON INTEGRALS
          ********************
 ...... END OF ONE-ELECTRON INTEGRALS ......
 STEP CPU TIME =     0.06 TOTAL CPU TIME =        0.1 (    0.0 MIN)
 TOTAL WALL CLOCK TIME=        0.7 SECONDS, CPU UTILIZATION IS  11.59%

          -------------
          GUESS OPTIONS
          -------------
          GUESS =HUCKEL            NORB  =       0          NORDER=       0
          MIX   =       F          PRTMO =       F          PUNMO =       F
          TOLZ  = 1.0E-08          TOLE  = 1.0E-05
          SYMDEN=       F          PURIFY=       F

 INITIAL GUESS ORBITALS GENERATED BY HUCKEL   ROUTINE.
 HUCKEL GUESS REQUIRES    426864 WORDS.

 SYMMETRIES FOR INITIAL GUESS ORBITALS FOLLOW.   BOTH SET(S).
    47 ORBITALS ARE OCCUPIED (   14 CORE ORBITALS).
    15=A       16=A       17=A       18=A       19=A       20=A       21=A   
    22=A       23=A       24=A       25=A       26=A       27=A       28=A   
    29=A       30=A       31=A       32=A       33=A       34=A       35=A   
    36=A       37=A       38=A       39=A       40=A       41=A       42=A   
    43=A       44=A       45=A       46=A       47=A       48=A       49=A   
    50=A       51=A       52=A       53=A       54=A       55=A       56=A   
    57=A   
 ...... END OF INITIAL ORBITAL SELECTION ......
 STEP CPU TIME =     0.09 TOTAL CPU TIME =        0.2 (    0.0 MIN)
 TOTAL WALL CLOCK TIME=        1.0 SECONDS, CPU UTILIZATION IS  17.17%

                    ----------------------
                    AO INTEGRAL TECHNOLOGY
                    ----------------------
     S,P,L SHELL ROTATED AXIS INTEGRALS, REPROGRAMMED BY
        KAZUYA ISHIMURA (IMS) AND JOSE SIERRA (SYNSTAR).
     S,P,D,L SHELL ROTATED AXIS INTEGRALS PROGRAMMED BY
        KAZUYA ISHIMURA (INSTITUTE FOR MOLECULAR SCIENCE).
     S,P,D,F,G SHELL TO TOTAL QUARTET ANGULAR MOMENTUM SUM 5,
        ERIC PROGRAM BY GRAHAM FLETCHER (ELORET AND NASA ADVANCED
        SUPERCOMPUTING DIVISION, AMES RESEARCH CENTER).
     S,P,D,F,G,L SHELL GENERAL RYS QUADRATURE PROGRAMMED BY
        MICHEL DUPUIS (PACIFIC NORTHWEST NATIONAL LABORATORY).

          --------------------
          2 ELECTRON INTEGRALS
          --------------------

 DIRECT SCF METHOD SKIPS INTEGRAL STORAGE ON DISK.
 DIRECT TRANSFORMATION SKIPS AO INTEGRAL STORAGE ON DISK.
  ...... END OF TWO-ELECTRON INTEGRALS .....
 STEP CPU TIME =     0.01 TOTAL CPU TIME =        0.2 (    0.0 MIN)
 TOTAL WALL CLOCK TIME=        1.1 SECONDS, CPU UTILIZATION IS  16.82%

          --------------------------
                 RHF SCF CALCULATION
          --------------------------

     NUCLEAR ENERGY =       766.3548992199
     MAXIT =  200     NPUNCH=    2
     EXTRAP=T  DAMP=F  SHIFT=F  RSTRCT=F  DIIS=F  DEM=F  SOSCF=T
     DENSITY MATRIX CONV=  2.00E-05
     SOSCF WILL OPTIMIZE    8601 ORBITAL ROTATIONS, SOGTOL=   0.250
     MEMORY REQUIRED FOR RHF ITERS=    459172 WORDS.

 DIRECT SCF CALCULATION, SCHWRZ=T   FDIFF=T,  DIRTHR=  0.00E+00 NITDIR=10
 SCHWARZ INEQUALITY OVERHEAD:     24190 INTEGRALS, T=        0.01

                                                                                   NONZERO     BLOCKS
 ITER EX DEM     TOTAL ENERGY        E CHANGE  DENSITY CHANGE     ORB. GRAD      INTEGRALS    SKIPPED
   1  0  0     -534.7990902841  -534.7990902841   0.154622406   0.000000000       97228979    2285812
          ---------------START SECOND ORDER SCF---------------
   2  1  0     -535.9341015099    -1.1350112258   0.057326408   0.050088591       97178418    2326449
   3  2  0     -535.9871533151    -0.0530518052   0.017595023   0.013785989       95933028    2428383
   4  3  0     -535.9955248186    -0.0083715035   0.004153759   0.003342687       94213616    2525307
   5  4  0     -535.9958287838    -0.0003039652   0.001456200   0.001628283       90973130    2637369
   6  5  0     -535.9958887240    -0.0000599402   0.000730152   0.000615115       87402346    2760662
   7  6  0     -535.9958957590    -0.0000070350   0.000386887   0.000228495       84612814    2847658
   8  7  0     -535.9958977753    -0.0000020162   0.000113687   0.000055172       81211210    2945321
   9  8  0     -535.9958979385    -0.0000001632   0.000019612   0.000009381       78363638    3006025
  10  9  0     -535.9958979427    -0.0000000042   0.000006838   0.000002787       70465606    3171500
  11 10  0     -535.9958979425     0.0000000002   0.000001562   0.000001003       64663954    3300308

          -----------------
          DENSITY CONVERGED
          -----------------
     TIME TO FORM FOCK OPERATORS=     100.6 SECONDS (       9.1 SEC/ITER)
     FOCK TIME ON FIRST ITERATION=      11.3, LAST ITERATION=       6.4
     TIME TO SOLVE SCF EQUATIONS=       0.3 SECONDS (       0.0 SEC/ITER)

 FINAL RHF ENERGY IS     -535.9958979425 AFTER  11 ITERATIONS

          ------------
          EIGENVECTORS
          ------------

                      1          2          3          4          5
                  -11.2442   -11.2441   -11.2433   -11.2432   -11.2369
                     A          A          A          A          A   
    1  C  1  S    0.078078   0.000000  -0.090313  -0.000000   0.324999
    2  C  1  S    0.001957   0.000000  -0.002365  -0.000000   0.009155
    3  C  1  X   -0.000000  -0.000167  -0.000000  -0.000196  -0.000000
    4  C  1  Y    0.000127   0.000000  -0.000101  -0.000000  -0.000031
    5  C  1  Z   -0.000000   0.000000  -0.000000  -0.000000  -0.000000
    6  C  1  S    0.002689   0.000000  -0.005719  -0.000000  -0.004933
    7  C  1  X   -0.000000   0.001124  -0.000000   0.000497  -0.000000
    8  C  1  Y   -0.000570   0.000000   0.002261  -0.000000   0.000489
    9  C  1  Z   -0.000000   0.000000  -0.000000  -0.000000  -0.000000
   10  C  1 XX   -0.000515   0.000000   0.000690  -0.000000  -0.000543
   11  C  1 YY   -0.000406   0.000000   0.000592  -0.000000  -0.000616
   12  C  1 ZZ   -0.000296   0.000000   0.000343  -0.000000  -0.000752
   13  C  1 XY   -0.000000   0.000089  -0.000000   0.000167  -0.000000
   14  C  1 XZ   -0.000000   0.000000  -0.000000  -0.000000  -0.000000
   15  C  1 YZ   -0.000000   0.000000  -0.000000  -0.000000  -0.000000
   16  C  2  S    0.078078   0.000000   0.090313  -0.000000   0.324999
   17  C  2  S    0.001957   0.000000   0.002365  -0.000000   0.009155
   18  C  2  X   -0.000000  -0.000167  -0.000000   0.000196  -0.000000
   19  C  2  Y   -0.000127   0.000000  -0.000101  -0.000000   0.000031
   20  C  2  Z   -0.000000   0.000000  -0.000000  -0.000000  -0.000000
   21  C  2  S    0.002689   0.000000   0.005719  -0.000000  -0.004933
   22  C  2  X   -0.000000   0.001124  -0.000000  -0.000497  -0.000000
   23  C  2  Y    0.000570   0.000000   0.002261  -0.000000  -0.000489
   24  C  2  Z   -0.000000   0.000000  -0.000000  -0.000000  -0.000000
   25  C  2 XX   -0.000515   0.000000  -0.000690  -0.000000  -0.000543
   26  C  2 YY   -0.000406   0.000000  -0.000592  -0.000000  -0.000616
   27  C  2 ZZ   -0.000296   0.000000  -0.000343  -0.000000  -0.000752
   28  C  2 XY   -0.000000  -0.000089  -0.000000   0.000167  -0.000000
   29  C  2 XZ   -0.000000   0.000000  -0.000000  -0.000000  -0.000000
   30  C  2 YZ   -0.000000   0.000000  -0.000000  -0.000000  -0.000000
   31  C  3  S    0.029654   0.030051   0.033986  -0.034923  -0.301159
   32  C  3  S    0.000750   0.000801   0.000959  -0.000942  -0.008280
   33  C  3  X    0.000062   0.000069   0.000085  -0.000048   0.000080
   34  C  3  Y   -0.000063  -0.000070  -0.000054   0.000043   0.000002
   35  C  3  Z   -0.000000   0.000000  -0.000000  -0.000000  -0.000000
   36  C  3  S    0.001406   0.001039   0.001470  -0.003032   0.002557
   37  C  3  X   -0.000737  -0.000349  -0.000609   0.000327  -0.000421
   38  C  3  Y    0.000264   0.000252   0.000438  -0.001449  -0.000001
   39  C  3  Z   -0.000000   0.000000  -0.000000  -0.000000  -0.000000
   40  C  3 XX   -0.000269  -0.000295  -0.000360   0.000368   0.000587
   41  C  3 YY   -0.000191  -0.000187  -0.000292   0.000266   0.000634
   42  C  3 ZZ   -0.000137  -0.000130  -0.000143   0.000155   0.000762
   43  C  3 XY    0.000074   0.000071   0.000108  -0.000094  -0.000039
   44  C  3 XZ   -0.000000   0.000000  -0.000000  -0.000000  -0.000000
   45  C  3 YZ   -0.000000   0.000000  -0.000000  -0.000000  -0.000000
   46  C  4  S    0.029654  -0.030051  -0.033986  -0.034923  -0.301159
   47  C  4  S    0.000750  -0.000801  -0.000959  -0.000942  -0.008280
   48  C  4  X   -0.000062   0.000069   0.000085   0.000048  -0.000080
   49  C  4  Y    0.000063  -0.000070  -0.000054  -0.000043  -0.000002
   50  C  4  Z   -0.000000   0.000000  -0.000000  -0.000000  -0.000000
   51  C  4  S    0.001406  -0.001039  -0.001470  -0.003032   0.002557
   52  C  4  X    0.000737  -0.000349  -0.000609  -0.000327   0.000421
   53  C  4  Y   -0.000264   0.000252   0.000438   0.001449   0.000001
   54  C  4  Z   -0.000000   0.000000  -0.000000  -0.000000  -0.000000
   55  C  4 XX   -0.000269   0.000295   0.000360   0.000368   0.000587
   56  C  4 YY   -0.000191   0.000187   0.000292   0.000266   0.000634
   57  C  4 ZZ   -0.000137   0.000130   0.000143   0.000155   0.000762
   58  C  4 XY    0.000074  -0.000071  -0.000108  -0.000094  -0.000039
   59  C  4 XZ   -0.000000   0.000000  -0.000000  -0.000000  -0.000000
   60  C  4 YZ   -0.000000   0.000000  -0.000000  -0.000000  -0.000000
   61  C  5  S    0.029654   0.030051  -0.033986   0.034923  -0.301159
   62  C  5  S    0.000750   0.000801  -0.000959   0.000942  -0.008280
   63  C  5  X    0.000062   0.000069  -0.000085   0.000048   0.000080
   64  C  5  Y    0.000063   0.000070  -0.000054   0.000043  -0.000002
   65  C  5  Z   -0.000000   0.000000  -0.000000  -0.000000  -0.000000
   66  C  5  S    0.001406   0.001039  -0.001470   0.003032   0.002557
   67  C  5  X   -0.000737  -0.000349   0.000609  -0.000327  -0.000421
   68  C  5  Y   -0.000264  -0.000252   0.000438  -0.001449   0.000001
   69  C  5  Z   -0.000000   0.000000  -0.000000  -0.000000  -0.000000
   70  C  5 XX   -0.000269  -0.000295   0.000360  -0.000368   0.000587
   71  C  5 YY   -0.000191  -0.000187   0.000292  -0.000266   0.000634
   72  C  5 ZZ   -0.000137  -0.000130   0.000143  -0.000155   0.000762
   73  C  5 XY   -0.000074  -0.000071   0.000108  -0.000094   0.000039
   74  C  5 XZ   -0.000000   0.000000  -0.000000  -0.000000  -0.000000
   75  C  5 YZ   -0.000000   0.000000  -0.000000  -0.000000  -0.000000
   76  C  6  S    0.029654  -0.030051   0.033986   0.034923  -0.301159
   77  C  6  S    0.000750  -0.000801   0.000959   0.000942  -0.008280
   78  C  6  X   -0.000062   0.000069  -0.000085  -0.000048  -0.000080
   79  C  6  Y   -0.000063   0.000070  -0.000054  -0.000043   0.000002
   80  C  6  Z   -0.000000   0.000000  -0.000000  -0.000000  -0.000000
   81  C  6  S    0.001406  -0.001039   0.001470   0.003032   0.002557
   82  C  6  X    0.000737  -0.000349   0.000609   0.000327   0.000421
   83  C  6  Y    0.000264  -0.000252   0.000438   0.001449  -0.000001
   84  C  6  Z   -0.000000   0.000000  -0.000000  -0.000000  -0.000000
   85  C  6 XX   -0.000269   0.000295  -0.000360  -0.000368   0.000587
   86  C  6 YY   -0.000191   0.000187  -0.000292  -0.000266   0.000634
   87  C  6 ZZ   -0.000137   0.000130  -0.000143  -0.000155   0.000762
   88  C  6 XY   -0.000074   0.000071  -0.000108  -0.000094   0.000039
   89  C  6 XZ   -0.000000   0.000000  -0.000000  -0.000000  -0.000000
   90  C  6 YZ   -0.000000   0.000000  -0.000000  -0.000000  -0.000000
   91  C  7  S    0.493722  -0.496810  -0.492621  -0.496706  -0.006416
   92  C  7  S    0.013667  -0.013864  -0.013793  -0.013930  -0.000177
   93  C  7  X   -0.000047  -0.000009  -0.000009   0.000045  -0.000136
   94  C  7  Y    0.000060  -0.000012   0.000092   0.000103  -0.000023
   95  C  7  Z   -0.000000   0.000000  -0.000000  -0.000000  -0.000000
   96  C  7  S   -0.004861   0.004458   0.011026   0.009865   0.000520
   97  C  7  X    0.000104   0.000158   0.001354  -0.001211   0.001103
   98  C  7  Y   -0.000683   0.000393  -0.001510  -0.002084   0.000170
   99  C  7  Z   -0.000000   0.000000  -0.000000  -0.000000  -0.000000
  100  C  7 XX   -0.000831   0.000898   0.000527   0.000620  -0.000012
  101  C  7 YY   -0.001087   0.001099   0.000478   0.000522   0.000002
  102  C  7 ZZ   -0.001210   0.001184   0.001030   0.001065   0.000027
  103  C  7 XY    0.000019  -0.000002  -0.000023  -0.000020  -0.000090
  104  C  7 XZ   -0.000000   0.000000  -0.000000  -0.000000  -0.000000
  105  C  7 YZ   -0.000000   0.000000  -0.000000  -0.000000  -0.000000
  106  C  8  S    0.493722   0.496810   0.492621  -0.496706  -0.006416
  107  C  8  S    0.013667   0.013864   0.013793  -0.013930  -0.000177
  108  C  8  X    0.000047  -0.000009  -0.000009  -0.000045   0.000136
  109  C  8  Y   -0.000060  -0.000012   0.000092  -0.000103   0.000023
  110  C  8  Z   -0.000000   0.000000  -0.000000  -0.000000  -0.000000
  111  C  8  S   -0.004861  -0.004458  -0.011026   0.009865   0.000520
  112  C  8  X   -0.000104   0.000158   0.001354   0.001211  -0.001103
  113  C  8  Y    0.000683   0.000393  -0.001510   0.002084  -0.000170
  114  C  8  Z   -0.000000   0.000000  -0.000000  -0.000000  -0.000000
  115  C  8 XX   -0.000831  -0.000898  -0.000527   0.000620  -0.000012
  116  C  8 YY   -0.001087  -0.001099  -0.000478   0.000522   0.000002
  117  C  8 ZZ   -0.001210  -0.001184  -0.001030   0.001065   0.000027
  118  C  8 XY    0.000019   0.000002   0.000023  -0.000020  -0.000090
  119  C  8 XZ   -0.000000   0.000000  -0.000000  -0.000000  -0.000000
  120  C  8 YZ   -0.000000   0.000000  -0.000000  -0.000000  -0.000000
  121  C  9  S    0.001842   0.001858   0.003158  -0.003386  -0.322685
  122  C  9  S   -0.000039  -0.000031   0.000077  -0.000134  -0.008863
  123  C  9  X    0.000027   0.000026  -0.000014   0.000003  -0.000018
  124  C  9  Y   -0.000014  -0.000019   0.000006  -0.000012  -0.000028
  125  C  9  Z   -0.000000   0.000000  -0.000000  -0.000000  -0.000000
  126  C  9  S    0.000115  -0.000072  -0.000605   0.001774   0.001811
  127  C  9  X   -0.000108  -0.000079   0.000241  -0.000878   0.000106
  128  C  9  Y   -0.000032   0.000055  -0.000349   0.000422  -0.000077
  129  C  9  Z   -0.000000   0.000000  -0.000000  -0.000000  -0.000000
  130  C  9 XX    0.000037   0.000038   0.000058  -0.000052   0.000728
  131  C  9 YY    0.000005   0.000004   0.000017  -0.000014   0.000785
  132  C  9 ZZ   -0.000035  -0.000032   0.000010  -0.000022   0.000836
  133  C  9 XY    0.000007   0.000010   0.000013  -0.000006   0.000000
  134  C  9 XZ   -0.000000   0.000000  -0.000000  -0.000000  -0.000000
  135  C  9 YZ   -0.000000   0.000000  -0.000000  -0.000000  -0.000000
  136  C 10  S    0.001842  -0.001858  -0.003158  -0.003386  -0.322685
  137  C 10  S   -0.000039   0.000031  -0.000077  -0.000134  -0.008863
  138  C 10  X   -0.000027   0.000026  -0.000014  -0.000003   0.000018
  139  C 10  Y    0.000014  -0.000019   0.000006   0.000012   0.000028
  140  C 10  Z   -0.000000   0.000000  -0.000000  -0.000000  -0.000000
  141  C 10  S    0.000115   0.000072   0.000605   0.001774   0.001811
  142  C 10  X    0.000108  -0.000079   0.000241   0.000878  -0.000106
  143  C 10  Y    0.000032   0.000055  -0.000349  -0.000422   0.000077
  144  C 10  Z   -0.000000   0.000000  -0.000000  -0.000000  -0.000000
  145  C 10 XX    0.000037  -0.000038  -0.000058  -0.000052   0.000728
  146  C 10 YY    0.000005  -0.000004  -0.000017  -0.000014   0.000785
  147  C 10 ZZ   -0.000035   0.000032  -0.000010  -0.000022   0.000836
  148  C 10 XY    0.000007  -0.000010  -0.000013  -0.000006   0.000000
  149  C 10 XZ   -0.000000   0.000000  -0.000000  -0.000000  -0.000000
  150  C 10 YZ   -0.000000   0.000000  -0.000000  -0.000000  -0.000000
  151  C 11  S    0.001842   0.001858  -0.003158   0.003386  -0.322685
  152  C 11  S   -0.000039  -0.000031  -0.000077   0.000134  -0.008863
  153  C 11  X    0.000027   0.000026   0.000014  -0.000003  -0.000018
  154  C 11  Y    0.000014   0.000019   0.000006  -0.000012   0.000028
  155  C 11  Z   -0.000000   0.000000  -0.000000  -0.000000  -0.000000
  156  C 11  S    0.000115  -0.000072   0.000605  -0.001774   0.001811
  157  C 11  X   -0.000108  -0.000079  -0.000241   0.000878   0.000106
  158  C 11  Y    0.000032  -0.000055  -0.000349   0.000422   0.000077
  159  C 11  Z   -0.000000   0.000000  -0.000000  -0.000000  -0.000000
  160  C 11 XX    0.000037   0.000038  -0.000058   0.000052   0.000728
  161  C 11 YY    0.000005   0.000004  -0.000017   0.000014   0.000785
  162  C 11 ZZ   -0.000035  -0.000032  -0.000010   0.000022   0.000836
  163  C 11 XY   -0.000007  -0.000010   0.000013  -0.000006  -0.000000
  164  C 11 XZ   -0.000000   0.000000  -0.000000  -0.000000  -0.000000
  165  C 11 YZ   -0.000000   0.000000  -0.000000  -0.000000  -0.000000
  166  C 12  S    0.001842  -0.001858   0.003158   0.003386  -0.322685
  167  C 12  S   -0.000039   0.000031   0.000077   0.000134  -0.008863
  168  C 12  X   -0.000027   0.000026   0.000014   0.000003   0.000018
  169  C 12  Y   -0.000014   0.000019   0.000006   0.000012  -0.000028
  170  C 12  Z   -0.000000   0.000000  -0.000000  -0.000000  -0.000000
  171  C 12  S    0.000115   0.000072  -0.000605  -0.001774   0.001811
  172  C 12  X    0.000108  -0.000079  -0.000241  -0.000878  -0.000106
  173  C 12  Y   -0.000032  -0.000055  -0.000349  -0.000422  -0.000077
  174  C 12  Z   -0.000000   0.000000  -0.000000  -0.000000  -0.000000
  175  C 12 XX    0.000037  -0.000038   0.000058   0.000052   0.000728
  176  C 12 YY    0.000005  -0.000004   0.000017   0.000014   0.000785
  177  C 12 ZZ   -0.000035   0.000032   0.000010   0.000022   0.000836
  178  C 12 XY   -0.000007   0.000010  -0.000013  -0.000006  -0.000000
  179  C 12 XZ   -0.000000   0.000000  -0.000000  -0.000000  -0.000000
  180  C 12 YZ   -0.000000   0.000000  -0.000000  -0.000000  -0.000000
  181  C 13  S    0.493722   0.496810  -0.492621   0.496706  -0.006416
  182  C 13  S    0.013667   0.013864  -0.013793   0.013930  -0.000177
  183  C 13  X    0.000047  -0.000009   0.000009   0.000045   0.000136
  184  C 13  Y    0.000060   0.000012   0.000092  -0.000103  -0.000023
  185  C 13  Z   -0.000000   0.000000  -0.000000  -0.000000  -0.000000
  186  C 13  S   -0.004861  -0.004458   0.011026  -0.009865   0.000520
  187  C 13  X   -0.000104   0.000158  -0.001354  -0.001211  -0.001103
  188  C 13  Y   -0.000683  -0.000393  -0.001510   0.002084   0.000170
  189  C 13  Z   -0.000000   0.000000  -0.000000  -0.000000  -0.000000
  190  C 13 XX   -0.000831  -0.000898   0.000527  -0.000620  -0.000012
  191  C 13 YY   -0.001087  -0.001099   0.000478  -0.000522   0.000002
  192  C 13 ZZ   -0.001210  -0.001184   0.001030  -0.001065   0.000027
  193  C 13 XY   -0.000019  -0.000002   0.000023  -0.000020   0.000090
  194  C 13 XZ   -0.000000   0.000000  -0.000000  -0.000000  -0.000000
  195  C 13 YZ   -0.000000   0.000000  -0.000000  -0.000000  -0.000000
  196  C 14  S    0.493722  -0.496810   0.492621   0.496706  -0.006416
  197  C 14  S    0.013667  -0.013864   0.013793   0.013930  -0.000177
  198  C 14  X   -0.000047  -0.000009   0.000009  -0.000045  -0.000136
  199  C 14  Y   -0.000060   0.000012   0.000092   0.000103   0.000023
  200  C 14  Z   -0.000000   0.000000  -0.000000  -0.000000  -0.000000
  201  C 14  S   -0.004861   0.004458  -0.011026  -0.009865   0.000520
  202  C 14  X    0.000104   0.000158  -0.001354   0.001211   0.001103
  203  C 14  Y    0.000683  -0.000393  -0.001510  -0.002084  -0.000170
  204  C 14  Z   -0.000000   0.000000  -0.000000  -0.000000  -0.000000
  205  C 14 XX   -0.000831   0.000898  -0.000527  -0.000620  -0.000012
  206  C 14 YY   -0.001087   0.001099  -0.000478  -0.000522   0.000002
  207  C 14 ZZ   -0.001210   0.001184  -0.001030  -0.001065   0.000027
  208  C 14 XY   -0.000019   0.000002  -0.000023  -0.000020   0.000090
  209  C 14 XZ   -0.000000   0.000000  -0.000000  -0.000000  -0.000000
  210  C 14 YZ   -0.000000   0.000000  -0.000000  -0.000000  -0.000000
  211  H 15  S   -0.000047  -0.000023   0.000041   0.000004   0.000052
  212  H 15  S    0.000021   0.000014  -0.000001   0.000244  -0.000619
  213  H 16  S   -0.000047   0.000023  -0.000041   0.000004   0.000052
  214  H 16  S    0.000021  -0.000014   0.000001   0.000244  -0.000619
  215  H 17  S   -0.000065   0.000000   0.000035  -0.000000  -0.000005
  216  H 17  S    0.000027   0.000000  -0.000298  -0.000000   0.000650
  217  H 18  S   -0.000065   0.000000  -0.000035  -0.000000  -0.000005
  218  H 18  S    0.000027   0.000000   0.000298  -0.000000   0.000650
  219  H 19  S   -0.000047  -0.000023  -0.000041  -0.000004   0.000052
  220  H 19  S    0.000021   0.000014   0.000001  -0.000244  -0.000619
  221  H 20  S   -0.000047   0.000023   0.000041  -0.000004   0.000052
  222  H 20  S    0.000021  -0.000014  -0.000001  -0.000244  -0.000619
  223  H 21  S   -0.000001   0.000010  -0.000017   0.000026   0.000086
  224  H 21  S    0.000079   0.000089  -0.000063   0.000181  -0.000566
  225  H 22  S   -0.000001  -0.000010   0.000017   0.000026   0.000086
  226  H 22  S    0.000079  -0.000089   0.000063   0.000181  -0.000566
  227  H 23  S   -0.000001   0.000010   0.000017  -0.000026   0.000086
  228  H 23  S    0.000079   0.000089   0.000063  -0.000181  -0.000566
  229  H 24  S   -0.000001  -0.000010  -0.000017  -0.000026   0.000086
  230  H 24  S    0.000079  -0.000089  -0.000063  -0.000181  -0.000566

                      6          7          8          9         10
                  -11.2369   -11.2369   -11.2368   -11.2366   -11.2365
                     A          A          A          A          A   
    1  C  1  S   -0.000000   0.685533   0.619299  -0.000000   0.132269
    2  C  1  S   -0.000000   0.019198   0.017236  -0.000000   0.003818
    3  C  1  X    0.000005  -0.000000   0.000000  -0.000027  -0.000000
    4  C  1  Y   -0.000000  -0.000220  -0.000178  -0.000000  -0.000089
    5  C  1  Z   -0.000000  -0.000000   0.000000  -0.000000  -0.000000
    6  C  1  S   -0.000000  -0.010383  -0.009000  -0.000000  -0.005983
    7  C  1  X   -0.000647  -0.000000   0.000000   0.001208  -0.000000
    8  C  1  Y   -0.000000   0.002518   0.001493  -0.000000   0.003391
    9  C  1  Z   -0.000000  -0.000000   0.000000  -0.000000  -0.000000
   10  C  1 XX   -0.000000  -0.000913  -0.000841  -0.000000  -0.000041
   11  C  1 YY   -0.000000  -0.001191  -0.001099  -0.000000  -0.000198
   12  C  1 ZZ   -0.000000  -0.001561  -0.001469  -0.000000  -0.000255
   13  C  1 XY    0.000029  -0.000000   0.000000  -0.000016  -0.000000
   14  C  1 XZ   -0.000000  -0.000000   0.000000  -0.000000  -0.000000
   15  C  1 YZ   -0.000000  -0.000000   0.000000  -0.000000  -0.000000
   16  C  2  S    0.000000  -0.685533   0.619299   0.000000  -0.132269
   17  C  2  S   -0.000000  -0.019198   0.017236  -0.000000  -0.003818
   18  C  2  X    0.000005  -0.000000   0.000000   0.000027  -0.000000
   19  C  2  Y   -0.000000  -0.000220   0.000178  -0.000000  -0.000089
   20  C  2  Z   -0.000000  -0.000000   0.000000  -0.000000  -0.000000
   21  C  2  S   -0.000000   0.010383  -0.009000  -0.000000   0.005983
   22  C  2  X   -0.000647  -0.000000   0.000000  -0.001208  -0.000000
   23  C  2  Y   -0.000000   0.002518  -0.001493  -0.000000   0.003391
   24  C  2  Z   -0.000000  -0.000000   0.000000  -0.000000  -0.000000
   25  C  2 XX   -0.000000   0.000913  -0.000841  -0.000000   0.000041
   26  C  2 YY   -0.000000   0.001191  -0.001099  -0.000000   0.000198
   27  C  2 ZZ   -0.000000   0.001561  -0.001469  -0.000000   0.000255
   28  C  2 XY   -0.000029  -0.000000   0.000000  -0.000016  -0.000000
   29  C  2 XZ   -0.000000  -0.000000   0.000000  -0.000000  -0.000000
   30  C  2 YZ   -0.000000  -0.000000   0.000000  -0.000000  -0.000000
   31  C  3  S   -0.333040   0.089763   0.142074  -0.433618  -0.424179
   32  C  3  S   -0.009121   0.002480   0.003801  -0.012057  -0.011779
   33  C  3  X    0.000105  -0.000030  -0.000049   0.000107   0.000123
   34  C  3  Y   -0.000020  -0.000024   0.000043  -0.000102  -0.000118
   35  C  3  Z   -0.000000  -0.000000   0.000000  -0.000000  -0.000000
   36  C  3  S    0.002815   0.000244  -0.001050   0.005001   0.003907
   37  C  3  X   -0.000595   0.000468   0.000199   0.000040   0.000245
   38  C  3  Y    0.000082   0.001124  -0.000020   0.001044   0.000545
   39  C  3  Z   -0.000000  -0.000000   0.000000  -0.000000  -0.000000
   40  C  3 XX    0.000603  -0.000284  -0.000187   0.000727   0.000688
   41  C  3 YY    0.000683  -0.000218  -0.000251   0.000864   0.000814
   42  C  3 ZZ    0.000841  -0.000238  -0.000374   0.001028   0.001001
   43  C  3 XY   -0.000037   0.000017  -0.000010  -0.000012  -0.000003
   44  C  3 XZ   -0.000000  -0.000000   0.000000  -0.000000  -0.000000
   45  C  3 YZ   -0.000000  -0.000000   0.000000  -0.000000  -0.000000
   46  C  4  S    0.333040  -0.089763   0.142074  -0.433618   0.424179
   47  C  4  S    0.009121  -0.002480   0.003801  -0.012057   0.011779
   48  C  4  X    0.000105  -0.000030   0.000049  -0.000107   0.000123
   49  C  4  Y   -0.000020  -0.000024  -0.000043   0.000102  -0.000118
   50  C  4  Z   -0.000000  -0.000000   0.000000  -0.000000  -0.000000
   51  C  4  S   -0.002815  -0.000244  -0.001050   0.005001  -0.003907
   52  C  4  X   -0.000595   0.000468  -0.000199  -0.000040   0.000245
   53  C  4  Y    0.000082   0.001124   0.000020  -0.001044   0.000545
   54  C  4  Z   -0.000000  -0.000000   0.000000  -0.000000  -0.000000
   55  C  4 XX   -0.000603   0.000284  -0.000187   0.000727  -0.000688
   56  C  4 YY   -0.000683   0.000218  -0.000251   0.000864  -0.000814
   57  C  4 ZZ   -0.000841   0.000238  -0.000374   0.001028  -0.001001
   58  C  4 XY    0.000037  -0.000017  -0.000010  -0.000012   0.000003
   59  C  4 XZ   -0.000000  -0.000000   0.000000  -0.000000  -0.000000
   60  C  4 YZ   -0.000000  -0.000000   0.000000  -0.000000  -0.000000
   61  C  5  S   -0.333040  -0.089763   0.142074   0.433618   0.424179
   62  C  5  S   -0.009121  -0.002480   0.003801   0.012057   0.011779
   63  C  5  X    0.000105   0.000030  -0.000049  -0.000107  -0.000123
   64  C  5  Y    0.000020  -0.000024  -0.000043  -0.000102  -0.000118
   65  C  5  Z   -0.000000  -0.000000   0.000000  -0.000000  -0.000000
   66  C  5  S    0.002815  -0.000244  -0.001050  -0.005001  -0.003907
   67  C  5  X   -0.000595  -0.000468   0.000199  -0.000040  -0.000245
   68  C  5  Y   -0.000082   0.001124   0.000020   0.001044   0.000545
   69  C  5  Z   -0.000000  -0.000000   0.000000  -0.000000  -0.000000
   70  C  5 XX    0.000603   0.000284  -0.000187  -0.000727  -0.000688
   71  C  5 YY    0.000683   0.000218  -0.000251  -0.000864  -0.000814
   72  C  5 ZZ    0.000841   0.000238  -0.000374  -0.001028  -0.001001
   73  C  5 XY    0.000037   0.000017   0.000010  -0.000012  -0.000003
   74  C  5 XZ   -0.000000  -0.000000   0.000000  -0.000000  -0.000000
   75  C  5 YZ   -0.000000  -0.000000   0.000000  -0.000000  -0.000000
   76  C  6  S    0.333040   0.089763   0.142074   0.433618  -0.424179
   77  C  6  S    0.009121   0.002480   0.003801   0.012057  -0.011779
   78  C  6  X    0.000105   0.000030   0.000049   0.000107  -0.000123
   79  C  6  Y    0.000020  -0.000024   0.000043   0.000102  -0.000118
   80  C  6  Z   -0.000000  -0.000000   0.000000  -0.000000  -0.000000
   81  C  6  S   -0.002815   0.000244  -0.001050  -0.005001   0.003907
   82  C  6  X   -0.000595  -0.000468  -0.000199   0.000040  -0.000245
   83  C  6  Y   -0.000082   0.001124  -0.000020  -0.001044   0.000545
   84  C  6  Z   -0.000000  -0.000000   0.000000  -0.000000  -0.000000
   85  C  6 XX   -0.000603  -0.000284  -0.000187  -0.000727   0.000688
   86  C  6 YY   -0.000683  -0.000218  -0.000251  -0.000864   0.000814
   87  C  6 ZZ   -0.000841  -0.000238  -0.000374  -0.001028   0.001001
   88  C  6 XY   -0.000037  -0.000017   0.000010  -0.000012   0.000003
   89  C  6 XZ   -0.000000  -0.000000   0.000000  -0.000000  -0.000000
   90  C  6 YZ   -0.000000  -0.000000   0.000000  -0.000000  -0.000000
   91  C  7  S   -0.021673  -0.056776  -0.058536   0.032373  -0.043250
   92  C  7  S   -0.000663  -0.001783  -0.001820   0.000963  -0.001412
   93  C  7  X    0.000081  -0.000096  -0.000089  -0.000034  -0.000007
   94  C  7  Y    0.000003  -0.000025  -0.000037   0.000005  -0.000017
   95  C  7  Z   -0.000000  -0.000000   0.000000  -0.000000  -0.000000
   96  C  7  S    0.000782   0.007418   0.003598  -0.003277   0.007368
   97  C  7  X   -0.000784   0.001499   0.001167   0.001170   0.002193
   98  C  7  Y   -0.000067  -0.001862   0.000372   0.001809  -0.001938
   99  C  7  Z   -0.000000  -0.000000   0.000000  -0.000000  -0.000000
  100  C  7 XX   -0.000086  -0.000257  -0.000195   0.000188  -0.000223
  101  C  7 YY   -0.000042  -0.000234  -0.000102   0.000131  -0.000209
  102  C  7 ZZ    0.000003   0.000003   0.000035  -0.000000  -0.000024
  103  C  7 XY    0.000047  -0.000094  -0.000069  -0.000067   0.000047
  104  C  7 XZ   -0.000000  -0.000000   0.000000  -0.000000  -0.000000
  105  C  7 YZ   -0.000000  -0.000000   0.000000  -0.000000  -0.000000
  106  C  8  S    0.021673   0.056776  -0.058536   0.032373   0.043250
  107  C  8  S    0.000663   0.001783  -0.001820   0.000963   0.001412
  108  C  8  X    0.000081  -0.000096   0.000089   0.000034  -0.000007
  109  C  8  Y    0.000003  -0.000025   0.000037  -0.000005  -0.000017
  110  C  8  Z   -0.000000  -0.000000   0.000000  -0.000000  -0.000000
  111  C  8  S   -0.000782  -0.007418   0.003598  -0.003277  -0.007368
  112  C  8  X   -0.000784   0.001499  -0.001167  -0.001170   0.002193
  113  C  8  Y   -0.000067  -0.001862  -0.000372  -0.001809  -0.001938
  114  C  8  Z   -0.000000  -0.000000   0.000000  -0.000000  -0.000000
  115  C  8 XX    0.000086   0.000257  -0.000195   0.000188   0.000223
  116  C  8 YY    0.000042   0.000234  -0.000102   0.000131   0.000209
  117  C  8 ZZ   -0.000003  -0.000003   0.000035  -0.000000   0.000024
  118  C  8 XY   -0.000047   0.000094  -0.000069  -0.000067  -0.000047
  119  C  8 XZ   -0.000000  -0.000000   0.000000  -0.000000  -0.000000
  120  C  8 YZ   -0.000000  -0.000000   0.000000  -0.000000  -0.000000
  121  C  9  S   -0.369118   0.040320   0.180143  -0.242240  -0.239228
  122  C  9  S   -0.010143   0.001176   0.004929  -0.006668  -0.006584
  123  C  9  X   -0.000017   0.000020   0.000008  -0.000025  -0.000032
  124  C  9  Y   -0.000032   0.000020   0.000011  -0.000122  -0.000128
  125  C  9  Z   -0.000000  -0.000000   0.000000  -0.000000  -0.000000
  126  C  9  S    0.002157  -0.001812  -0.001005   0.001242   0.001492
  127  C  9  X    0.000132   0.000776  -0.000167   0.000772   0.000682
  128  C  9  Y   -0.000154  -0.000346   0.000115   0.000673   0.000744
  129  C  9  Z   -0.000000  -0.000000   0.000000  -0.000000  -0.000000
  130  C  9 XX    0.000828  -0.000092  -0.000392   0.000521   0.000514
  131  C  9 YY    0.000901  -0.000063  -0.000444   0.000463   0.000462
  132  C  9 ZZ    0.000953  -0.000082  -0.000476   0.000591   0.000587
  133  C  9 XY    0.000008   0.000017  -0.000011  -0.000035  -0.000027
  134  C  9 XZ   -0.000000  -0.000000   0.000000  -0.000000  -0.000000
  135  C  9 YZ   -0.000000  -0.000000   0.000000  -0.000000  -0.000000
  136  C 10  S    0.369118  -0.040320   0.180143  -0.242240   0.239228
  137  C 10  S    0.010143  -0.001176   0.004929  -0.006668   0.006584
  138  C 10  X   -0.000017   0.000020  -0.000008   0.000025  -0.000032
  139  C 10  Y   -0.000032   0.000020  -0.000011   0.000122  -0.000128
  140  C 10  Z   -0.000000  -0.000000   0.000000  -0.000000  -0.000000
  141  C 10  S   -0.002157   0.001812  -0.001005   0.001242  -0.001492
  142  C 10  X    0.000132   0.000776   0.000167  -0.000772   0.000682
  143  C 10  Y   -0.000154  -0.000346  -0.000115  -0.000673   0.000744
  144  C 10  Z   -0.000000  -0.000000   0.000000  -0.000000  -0.000000
  145  C 10 XX   -0.000828   0.000092  -0.000392   0.000521  -0.000514
  146  C 10 YY   -0.000901   0.000063  -0.000444   0.000463  -0.000462
  147  C 10 ZZ   -0.000953   0.000082  -0.000476   0.000591  -0.000587
  148  C 10 XY   -0.000008  -0.000017  -0.000011  -0.000035   0.000027
  149  C 10 XZ   -0.000000  -0.000000   0.000000  -0.000000  -0.000000
  150  C 10 YZ   -0.000000  -0.000000   0.000000  -0.000000  -0.000000
  151  C 11  S   -0.369118  -0.040320   0.180143   0.242240   0.239228
  152  C 11  S   -0.010143  -0.001176   0.004929   0.006668   0.006584
  153  C 11  X   -0.000017  -0.000020   0.000008   0.000025   0.000032
  154  C 11  Y    0.000032   0.000020  -0.000011  -0.000122  -0.000128
  155  C 11  Z   -0.000000  -0.000000   0.000000  -0.000000  -0.000000
  156  C 11  S    0.002157   0.001812  -0.001005  -0.001242  -0.001492
  157  C 11  X    0.000132  -0.000776  -0.000167  -0.000772  -0.000682
  158  C 11  Y    0.000154  -0.000346  -0.000115   0.000673   0.000744
  159  C 11  Z   -0.000000  -0.000000   0.000000  -0.000000  -0.000000
  160  C 11 XX    0.000828   0.000092  -0.000392  -0.000521  -0.000514
  161  C 11 YY    0.000901   0.000063  -0.000444  -0.000463  -0.000462
  162  C 11 ZZ    0.000953   0.000082  -0.000476  -0.000591  -0.000587
  163  C 11 XY   -0.000008   0.000017   0.000011  -0.000035  -0.000027
  164  C 11 XZ   -0.000000  -0.000000   0.000000  -0.000000  -0.000000
  165  C 11 YZ   -0.000000  -0.000000   0.000000  -0.000000  -0.000000
  166  C 12  S    0.369118   0.040320   0.180143   0.242240  -0.239228
  167  C 12  S    0.010143   0.001176   0.004929   0.006668  -0.006584
  168  C 12  X   -0.000017  -0.000020  -0.000008  -0.000025   0.000032
  169  C 12  Y    0.000032   0.000020   0.000011   0.000122  -0.000128
  170  C 12  Z   -0.000000  -0.000000   0.000000  -0.000000  -0.000000
  171  C 12  S   -0.002157  -0.001812  -0.001005  -0.001242   0.001492
  172  C 12  X    0.000132  -0.000776   0.000167   0.000772  -0.000682
  173  C 12  Y    0.000154  -0.000346   0.000115  -0.000673   0.000744
  174  C 12  Z   -0.000000  -0.000000   0.000000  -0.000000  -0.000000
  175  C 12 XX   -0.000828  -0.000092  -0.000392  -0.000521   0.000514
  176  C 12 YY   -0.000901  -0.000063  -0.000444  -0.000463   0.000462
  177  C 12 ZZ   -0.000953  -0.000082  -0.000476  -0.000591   0.000587
  178  C 12 XY    0.000008  -0.000017   0.000011  -0.000035   0.000027
  179  C 12 XZ   -0.000000  -0.000000   0.000000  -0.000000  -0.000000
  180  C 12 YZ   -0.000000  -0.000000   0.000000  -0.000000  -0.000000
  181  C 13  S    0.021673  -0.056776  -0.058536  -0.032373  -0.043250
  182  C 13  S    0.000663  -0.001783  -0.001820  -0.000963  -0.001412
  183  C 13  X    0.000081   0.000096   0.000089  -0.000034   0.000007
  184  C 13  Y   -0.000003  -0.000025  -0.000037  -0.000005  -0.000017
  185  C 13  Z   -0.000000  -0.000000   0.000000  -0.000000  -0.000000
  186  C 13  S   -0.000782   0.007418   0.003598   0.003277   0.007368
  187  C 13  X   -0.000784  -0.001499  -0.001167   0.001170  -0.002193
  188  C 13  Y    0.000067  -0.001862   0.000372  -0.001809  -0.001938
  189  C 13  Z   -0.000000  -0.000000   0.000000  -0.000000  -0.000000
  190  C 13 XX    0.000086  -0.000257  -0.000195  -0.000188  -0.000223
  191  C 13 YY    0.000042  -0.000234  -0.000102  -0.000131  -0.000209
  192  C 13 ZZ   -0.000003   0.000003   0.000035   0.000000  -0.000024
  193  C 13 XY    0.000047   0.000094   0.000069  -0.000067  -0.000047
  194  C 13 XZ   -0.000000  -0.000000   0.000000  -0.000000  -0.000000
  195  C 13 YZ   -0.000000  -0.000000   0.000000  -0.000000  -0.000000
  196  C 14  S   -0.021673   0.056776  -0.058536  -0.032373   0.043250
  197  C 14  S   -0.000663   0.001783  -0.001820  -0.000963   0.001412
  198  C 14  X    0.000081   0.000096  -0.000089   0.000034   0.000007
  199  C 14  Y   -0.000003  -0.000025   0.000037   0.000005  -0.000017
  200  C 14  Z   -0.000000  -0.000000   0.000000  -0.000000  -0.000000
  201  C 14  S    0.000782  -0.007418   0.003598   0.003277  -0.007368
  202  C 14  X   -0.000784  -0.001499   0.001167  -0.001170  -0.002193
  203  C 14  Y    0.000067  -0.001862  -0.000372   0.001809  -0.001938
  204  C 14  Z   -0.000000  -0.000000   0.000000  -0.000000  -0.000000
  205  C 14 XX   -0.000086   0.000257  -0.000195  -0.000188   0.000223
  206  C 14 YY   -0.000042   0.000234  -0.000102  -0.000131   0.000209
  207  C 14 ZZ    0.000003  -0.000003   0.000035   0.000000   0.000024
  208  C 14 XY   -0.000047  -0.000094   0.000069  -0.000067   0.000047
  209  C 14 XZ   -0.000000  -0.000000   0.000000  -0.000000  -0.000000
  210  C 14 YZ   -0.000000  -0.000000   0.000000  -0.000000  -0.000000
  211  H 15  S    0.000059  -0.000045  -0.000044  -0.000113  -0.000112
  212  H 15  S   -0.000583  -0.000560   0.000205   0.000470   0.000614
  213  H 16  S   -0.000059   0.000045  -0.000044  -0.000113   0.000112
  214  H 16  S    0.000583   0.000560   0.000205   0.000470  -0.000614
  215  H 17  S   -0.000000  -0.000176  -0.000127  -0.000000  -0.000156
  216  H 17  S   -0.000000   0.000776   0.000907  -0.000000  -0.000703
  217  H 18  S   -0.000000   0.000176  -0.000127  -0.000000   0.000156
  218  H 18  S   -0.000000  -0.000776   0.000907  -0.000000   0.000703
  219  H 19  S    0.000059   0.000045  -0.000044   0.000113   0.000112
  220  H 19  S   -0.000583   0.000560   0.000205  -0.000470  -0.000614
  221  H 20  S   -0.000059  -0.000045  -0.000044   0.000113  -0.000112
  222  H 20  S    0.000583  -0.000560   0.000205  -0.000470   0.000614
  223  H 21  S    0.000094  -0.000022  -0.000045   0.000037   0.000038
  224  H 21  S   -0.000673  -0.000135   0.000391  -0.000467  -0.000454
  225  H 22  S   -0.000094   0.000022  -0.000045   0.000037  -0.000038
  226  H 22  S    0.000673   0.000135   0.000391  -0.000467   0.000454
  227  H 23  S    0.000094   0.000022  -0.000045  -0.000037  -0.000038
  228  H 23  S   -0.000673   0.000135   0.000391   0.000467   0.000454
  229  H 24  S   -0.000094  -0.000022  -0.000045  -0.000037   0.000038
  230  H 24  S    0.000673  -0.000135   0.000391   0.000467  -0.000454

                     11         12         13         14         15
                  -11.2355   -11.2355   -11.2349   -11.2349    -1.1808
                     A          A          A          A          A   
    1  C  1  S   -0.000000   0.020525  -0.000000   0.009869  -0.069469
    2  C  1  S   -0.000000   0.000529   0.000000   0.000224   0.130828
    3  C  1  X    0.000007  -0.000000   0.000051  -0.000000  -0.000000
    4  C  1  Y   -0.000000  -0.000056   0.000000  -0.000059  -0.041426
    5  C  1  Z   -0.000000  -0.000000   0.000000  -0.000000  -0.000000
    6  C  1  S   -0.000000  -0.000798   0.000000   0.001908   0.093751
    7  C  1  X    0.000159  -0.000000  -0.000055  -0.000000  -0.000000
    8  C  1  Y   -0.000000   0.000302   0.000000  -0.000512  -0.006767
    9  C  1  Z   -0.000000  -0.000000   0.000000  -0.000000  -0.000000
   10  C  1 XX   -0.000000   0.000032   0.000000   0.000085   0.007573
   11  C  1 YY   -0.000000   0.000021   0.000000   0.000055   0.003370
   12  C  1 ZZ   -0.000000  -0.000053   0.000000  -0.000018  -0.006511
   13  C  1 XY    0.000034  -0.000000  -0.000022  -0.000000  -0.000000
   14  C  1 XZ   -0.000000  -0.000000   0.000000  -0.000000  -0.000000
   15  C  1 YZ   -0.000000  -0.000000   0.000000  -0.000000  -0.000000
   16  C  2  S   -0.000000   0.020525   0.000000  -0.009869  -0.069469
   17  C  2  S   -0.000000   0.000529   0.000000  -0.000224   0.130828
   18  C  2  X    0.000007  -0.000000  -0.000051  -0.000000  -0.000000
   19  C  2  Y   -0.000000   0.000056   0.000000  -0.000059   0.041426
   20  C  2  Z   -0.000000  -0.000000   0.000000  -0.000000  -0.000000
   21  C  2  S   -0.000000  -0.000798   0.000000  -0.001908   0.093751
   22  C  2  X    0.000159  -0.000000   0.000055  -0.000000  -0.000000
   23  C  2  Y   -0.000000  -0.000302   0.000000  -0.000512   0.006767
   24  C  2  Z   -0.000000  -0.000000   0.000000  -0.000000  -0.000000
   25  C  2 XX   -0.000000   0.000032   0.000000  -0.000085   0.007573
   26  C  2 YY   -0.000000   0.000021   0.000000  -0.000055   0.003370
   27  C  2 ZZ   -0.000000  -0.000053   0.000000   0.000018  -0.006511
   28  C  2 XY   -0.000034  -0.000000  -0.000022  -0.000000  -0.000000
   29  C  2 XZ   -0.000000  -0.000000   0.000000  -0.000000  -0.000000
   30  C  2 YZ   -0.000000  -0.000000   0.000000  -0.000000  -0.000000
   31  C  3  S   -0.368802   0.368876  -0.242100  -0.242313  -0.048520
[...]
             62  C  5  S      0.67156     0.35299
             63  C  5  X      0.75056     0.66470
             64  C  5  Y      0.72968     0.64948
             65  C  5  Z      0.52367     0.48474
             66  C  5  S      0.45167     0.29286
             67  C  5  X      0.17459     0.31619
             68  C  5  Y      0.35268     0.40770
             69  C  5  Z      0.46966     0.49908
             70  C  5 XX      0.02127     0.18247
             71  C  5 YY      0.03303     0.18165
             72  C  5 ZZ     -0.01842     0.10088
             73  C  5 XY      0.01361     0.02371
             74  C  5 XZ      0.00811     0.01567
             75  C  5 YZ      0.00275     0.00371
             76  C  6  S      1.99663     1.97960
             77  C  6  S      0.67156     0.35299
             78  C  6  X      0.75056     0.66470
             79  C  6  Y      0.72968     0.64948
             80  C  6  Z      0.52367     0.48474
             81  C  6  S      0.45167     0.29286
             82  C  6  X      0.17459     0.31619
             83  C  6  Y      0.35268     0.40770
             84  C  6  Z      0.46966     0.49908
             85  C  6 XX      0.02127     0.18247
             86  C  6 YY      0.03303     0.18165
             87  C  6 ZZ     -0.01842     0.10088
             88  C  6 XY      0.01361     0.02371
             89  C  6 XZ      0.00811     0.01567
             90  C  6 YZ      0.00275     0.00371
             91  C  7  S      1.99668     1.97820
             92  C  7  S      0.67467     0.34778
             93  C  7  X      0.74942     0.65839
             94  C  7  Y      0.73921     0.65830
             95  C  7  Z      0.52636     0.47719
             96  C  7  S      0.42210     0.26430
             97  C  7  X      0.21727     0.30988
             98  C  7  Y      0.17432     0.32132
             99  C  7  Z      0.44225     0.48076
            100  C  7 XX      0.02432     0.17781
            101  C  7 YY      0.02152     0.17441
            102  C  7 ZZ     -0.01763     0.09968
            103  C  7 XY      0.01618     0.03228
            104  C  7 XZ      0.00765     0.01486
            105  C  7 YZ      0.00601     0.01186
            106  C  8  S      1.99668     1.97820
            107  C  8  S      0.67467     0.34778
            108  C  8  X      0.74942     0.65839
            109  C  8  Y      0.73921     0.65830
            110  C  8  Z      0.52636     0.47719
            111  C  8  S      0.42210     0.26430
            112  C  8  X      0.21727     0.30988
            113  C  8  Y      0.17432     0.32132
            114  C  8  Z      0.44225     0.48076
            115  C  8 XX      0.02432     0.17781
            116  C  8 YY      0.02152     0.17441
            117  C  8 ZZ     -0.01763     0.09968
            118  C  8 XY      0.01618     0.03228
            119  C  8 XZ      0.00765     0.01486
            120  C  8 YZ      0.00601     0.01186
            121  C  9  S      1.99665     1.97979
            122  C  9  S      0.66953     0.35200
            123  C  9  X      0.74961     0.66414
            124  C  9  Y      0.73327     0.65251
            125  C  9  Z      0.52068     0.48093
            126  C  9  S      0.49095     0.29612
            127  C  9  X      0.30920     0.38394
            128  C  9  Y      0.21230     0.34635
            129  C  9  Z      0.47231     0.50315
            130  C  9 XX      0.02989     0.18185
            131  C  9 YY      0.02188     0.17599
            132  C  9 ZZ     -0.01863     0.10018
            133  C  9 XY      0.01624     0.03106
            134  C  9 XZ      0.00509     0.00786
            135  C  9 YZ      0.00573     0.01183
            136  C 10  S      1.99665     1.97979
            137  C 10  S      0.66953     0.35200
            138  C 10  X      0.74961     0.66414
            139  C 10  Y      0.73327     0.65251
            140  C 10  Z      0.52068     0.48093
            141  C 10  S      0.49095     0.29612
            142  C 10  X      0.30920     0.38394
            143  C 10  Y      0.21230     0.34635
            144  C 10  Z      0.47231     0.50315
            145  C 10 XX      0.02989     0.18185
            146  C 10 YY      0.02188     0.17599
            147  C 10 ZZ     -0.01863     0.10018
            148  C 10 XY      0.01624     0.03106
            149  C 10 XZ      0.00509     0.00786
            150  C 10 YZ      0.00573     0.01183
            151  C 11  S      1.99665     1.97979
            152  C 11  S      0.66953     0.35200
            153  C 11  X      0.74961     0.66414
            154  C 11  Y      0.73327     0.65251
            155  C 11  Z      0.52068     0.48093
            156  C 11  S      0.49095     0.29612
            157  C 11  X      0.30920     0.38394
            158  C 11  Y      0.21230     0.34635
            159  C 11  Z      0.47231     0.50315
            160  C 11 XX      0.02989     0.18185
            161  C 11 YY      0.02188     0.17599
            162  C 11 ZZ     -0.01863     0.10018
            163  C 11 XY      0.01624     0.03106
            164  C 11 XZ      0.00509     0.00786
            165  C 11 YZ      0.00573     0.01183
            166  C 12  S      1.99665     1.97979
            167  C 12  S      0.66953     0.35200
            168  C 12  X      0.74961     0.66414
            169  C 12  Y      0.73327     0.65251
            170  C 12  Z      0.52068     0.48093
            171  C 12  S      0.49095     0.29612
            172  C 12  X      0.30920     0.38394
            173  C 12  Y      0.21230     0.34635
            174  C 12  Z      0.47231     0.50315
            175  C 12 XX      0.02989     0.18185
            176  C 12 YY      0.02188     0.17599
            177  C 12 ZZ     -0.01863     0.10018
            178  C 12 XY      0.01624     0.03106
            179  C 12 XZ      0.00509     0.00786
            180  C 12 YZ      0.00573     0.01183
            181  C 13  S      1.99668     1.97820
            182  C 13  S      0.67467     0.34778
            183  C 13  X      0.74942     0.65839
            184  C 13  Y      0.73921     0.65830
            185  C 13  Z      0.52636     0.47719
            186  C 13  S      0.42210     0.26430
            187  C 13  X      0.21727     0.30988
            188  C 13  Y      0.17432     0.32132
            189  C 13  Z      0.44225     0.48076
            190  C 13 XX      0.02432     0.17781
            191  C 13 YY      0.02152     0.17441
            192  C 13 ZZ     -0.01763     0.09968
            193  C 13 XY      0.01618     0.03228
            194  C 13 XZ      0.00765     0.01486
            195  C 13 YZ      0.00601     0.01186
            196  C 14  S      1.99668     1.97820
            197  C 14  S      0.67467     0.34778
            198  C 14  X      0.74942     0.65839
            199  C 14  Y      0.73921     0.65830
            200  C 14  Z      0.52636     0.47719
            201  C 14  S      0.42210     0.26430
            202  C 14  X      0.21727     0.30988
            203  C 14  Y      0.17432     0.32132
            204  C 14  Z      0.44225     0.48076
            205  C 14 XX      0.02432     0.17781
            206  C 14 YY      0.02152     0.17441
            207  C 14 ZZ     -0.01763     0.09968
            208  C 14 XY      0.01618     0.03228
            209  C 14 XZ      0.00765     0.01486
            210  C 14 YZ      0.00601     0.01186
            211  H 15  S      0.52888     0.49357
            212  H 15  S      0.26565     0.34316
            213  H 16  S      0.52888     0.49357
            214  H 16  S      0.26565     0.34316
            215  H 17  S      0.52849     0.49360
            216  H 17  S      0.26159     0.34405
            217  H 18  S      0.52849     0.49360
            218  H 18  S      0.26159     0.34405
            219  H 19  S      0.52888     0.49357
            220  H 19  S      0.26565     0.34316
            221  H 20  S      0.52888     0.49357
            222  H 20  S      0.26565     0.34316
            223  H 21  S      0.52911     0.49182
            224  H 21  S      0.26802     0.34200
            225  H 22  S      0.52911     0.49182
            226  H 22  S      0.26802     0.34200
            227  H 23  S      0.52911     0.49182
            228  H 23  S      0.26802     0.34200
            229  H 24  S      0.52911     0.49182
            230  H 24  S      0.26802     0.34200

          ----- MULLIKEN ATOMIC OVERLAP POPULATIONS -----
          (OFF-DIAGONAL ELEMENTS NEED TO BE MULTIPLIED BY 2)

             1           2           3           4           5

    1    5.0306614
    2   -0.0649737   5.0306614
    3    0.0077682  -0.0564726   4.9124883
    4   -0.0564726   0.0077682  -0.0000033   4.9124883
    5   -0.0564726   0.0077682  -0.0400599  -0.0001090   4.9124883
    6    0.0077682  -0.0564726  -0.0001090  -0.0400599  -0.0000033
    7    0.5289673  -0.0336336  -0.0001312   0.4628518   0.0030747
    8   -0.0336336   0.5289673   0.4628518  -0.0001312  -0.0327930
    9   -0.0005575   0.0037273   0.6137622   0.0000002  -0.0437570
   10    0.0037273  -0.0005575   0.0000002   0.6137622   0.0000013
   11    0.0037273  -0.0005575  -0.0437570   0.0000013   0.6137622
   12   -0.0005575   0.0037273   0.0000013  -0.0437570   0.0000002
   13    0.5289673  -0.0336336  -0.0327930   0.0030747   0.4628518
   14   -0.0336336   0.5289673   0.0030747  -0.0327930  -0.0001312
   15   -0.0004505  -0.0001186   0.0002064  -0.0000039   0.3795935
   16   -0.0001186  -0.0004505  -0.0000039   0.0002064   0.0000000
   17    0.3699923   0.0004378  -0.0001433  -0.0007242  -0.0007242
   18    0.0004378   0.3699923  -0.0007242  -0.0001433  -0.0001433
   19   -0.0001186  -0.0004505   0.3795935   0.0000000   0.0002064
   20   -0.0004505  -0.0001186   0.0000000   0.3795935  -0.0000039
   21    0.0000068  -0.0001200  -0.0266506   0.0000000   0.0021623
   22   -0.0001200   0.0000068   0.0000000  -0.0266506  -0.0000000
   23   -0.0001200   0.0000068   0.0021623  -0.0000000  -0.0266506
   24    0.0000068  -0.0001200  -0.0000000   0.0021623   0.0000000

             6           7           8           9          10

    6    4.9124883
    7   -0.0327930   4.7031771
    8    0.0030747  -0.0225405   4.7031771
    9    0.0000013   0.0000711  -0.0393944   4.9183627
   10   -0.0437570  -0.0393944   0.0000711  -0.0000000   4.9183627
   11    0.0000002  -0.0002321  -0.0247407   0.4619464   0.0000000
   12    0.6137622  -0.0247407  -0.0002321   0.0000000   0.4619464
   13   -0.0001312  -0.0383960   0.5510795  -0.0247407  -0.0002321
   14    0.4628518   0.5510795  -0.0383960  -0.0002321  -0.0247407
   15    0.0000000   0.0000659   0.0020032   0.0025025   0.0000000
   16    0.3795935   0.0020032   0.0000659   0.0000000   0.0025025
   17   -0.0001433  -0.0283180   0.0018646   0.0000156   0.0000656
   18   -0.0007242   0.0018646  -0.0283180   0.0000656   0.0000156
   19   -0.0000039   0.0000109  -0.0346399  -0.0284842   0.0000000
   20    0.0002064  -0.0346399   0.0000109   0.0000000  -0.0284842
   21   -0.0000000  -0.0000002   0.0015046   0.3816338   0.0000000
   22    0.0021623   0.0015046  -0.0000002   0.0000000   0.3816338
   23    0.0000000   0.0000021   0.0004956  -0.0302107   0.0000000
   24   -0.0266506   0.0004956   0.0000021   0.0000000  -0.0302107

            11          12          13          14          15

   11    4.9183627
   12   -0.0000000   4.9183627
   13   -0.0393944   0.0000711   4.7031770
   14    0.0000711  -0.0393944  -0.0225404   4.7031770
   15   -0.0284842   0.0000000  -0.0346399   0.0000109   0.4721686
   16    0.0000000  -0.0284842   0.0000109  -0.0346399   0.0000000
   17    0.0000656   0.0000156  -0.0283180   0.0018646   0.0035948
   18    0.0000156   0.0000656   0.0018646  -0.0283180   0.0000016
   19    0.0025025   0.0000000   0.0020032   0.0000659   0.0000129
   20    0.0000000   0.0025025   0.0000659   0.0020032   0.0000007
   21   -0.0302107   0.0000000   0.0004956   0.0000021  -0.0001183
   22    0.0000000  -0.0302107   0.0000021   0.0004956   0.0000000
   23    0.3816338   0.0000000   0.0015046  -0.0000002  -0.0018116
   24    0.0000000   0.3816338  -0.0000002   0.0015046  -0.0000000

            16          17          18          19          20

   16    0.4721686
   17    0.0000016   0.4669394
   18    0.0035948   0.0000171   0.4669394
   19    0.0000007   0.0000016   0.0035948   0.4721686
   20    0.0000129   0.0035948   0.0000016   0.0000000   0.4721686
   21    0.0000000  -0.0000000  -0.0000087  -0.0018116  -0.0000000
   22   -0.0001183  -0.0000087  -0.0000000  -0.0000000  -0.0018116
   23   -0.0000000  -0.0000087  -0.0000000  -0.0001183   0.0000000
   24   -0.0018116  -0.0000000  -0.0000087   0.0000000  -0.0001183

            21          22          23          24

   21    0.4712775
   22    0.0000000   0.4712775
   23   -0.0010356  -0.0000000   0.4712775
   24   -0.0000000  -0.0010356   0.0000000   0.4712775

          TOTAL MULLIKEN AND LOWDIN ATOMIC POPULATIONS
       ATOM         MULL.POP.    CHARGE          LOW.POP.     CHARGE
    1 C             6.234351   -0.234351         6.161025   -0.161025
    2 C             6.234351   -0.234351         6.161025   -0.161025
    3 C             6.181061   -0.181061         6.155417   -0.155417
    4 C             6.181061   -0.181061         6.155417   -0.155417
    5 C             6.181061   -0.181061         6.155417   -0.155417
    6 C             6.181061   -0.181061         6.155417   -0.155417
    7 C             6.000349   -0.000349         6.007011   -0.007011
    8 C             6.000349   -0.000349         6.007011   -0.007011
    9 C             6.214712   -0.214712         6.167685   -0.167685
   10 C             6.214712   -0.214712         6.167685   -0.167685
   11 C             6.214712   -0.214712         6.167685   -0.167685
   12 C             6.214712   -0.214712         6.167685   -0.167685
   13 C             6.000349   -0.000349         6.007011   -0.007011
   14 C             6.000349   -0.000349         6.007011   -0.007011
   15 H             0.794534    0.205466         0.836730    0.163270
   16 H             0.794534    0.205466         0.836730    0.163270
   17 H             0.790083    0.209917         0.837655    0.162345
   18 H             0.790083    0.209917         0.837655    0.162345
   19 H             0.794534    0.205466         0.836730    0.163270
   20 H             0.794534    0.205466         0.836730    0.163270
   21 H             0.797127    0.202873         0.833818    0.166182
   22 H             0.797127    0.202873         0.833818    0.166182
   23 H             0.797127    0.202873         0.833818    0.166182
   24 H             0.797127    0.202873         0.833818    0.166182

          -------------------------------
          BOND ORDER AND VALENCE ANALYSIS     BOND ORDER THRESHOLD=0.050
          -------------------------------

                   BOND                       BOND                       BOND
  ATOM PAIR DIST  ORDER      ATOM PAIR DIST  ORDER      ATOM PAIR DIST  ORDER
    1   2  2.783  0.094        1   7  1.390  1.409        1  13  1.390  1.409
    1  17  1.077  0.926        2   8  1.390  1.409        2  14  1.390  1.409
    2  18  1.077  0.926        3   5  2.800  0.080        3   8  1.436  1.192
    3   9  1.348  1.703        3  19  1.076  0.935        4   6  2.800  0.080
    4   7  1.436  1.192        4  10  1.348  1.703        4  20  1.076  0.935
    5  11  1.348  1.703        5  13  1.436  1.192        5  15  1.076  0.935
    6  12  1.348  1.703        6  14  1.436  1.192        6  16  1.076  0.935
    7  14  1.425  1.312        8  13  1.425  1.312        9  11  1.433  1.199
    9  21  1.075  0.941       10  12  1.433  1.199       10  22  1.075  0.941
   11  23  1.075  0.941       12  24  1.075  0.941

                       TOTAL       BONDED        FREE
      ATOM            VALENCE     VALENCE     VALENCE
    1 C                 3.900       3.900       0.000
    2 C                 3.900       3.900      -0.000
    3 C                 3.901       3.901       0.000
    4 C                 3.901       3.901       0.000
    5 C                 3.901       3.901      -0.000
    6 C                 3.901       3.901      -0.000
    7 C                 3.997       3.997      -0.000
    8 C                 3.997       3.997       0.000
    9 C                 3.903       3.903      -0.000
   10 C                 3.903       3.903       0.000
   11 C                 3.903       3.903      -0.000
   12 C                 3.903       3.903      -0.000
   13 C                 3.997       3.997       0.000
   14 C                 3.997       3.997      -0.000
   15 H                 0.925       0.925      -0.000
   16 H                 0.925       0.925      -0.000
   17 H                 0.925       0.925      -0.000
   18 H                 0.925       0.925       0.000
   19 H                 0.925       0.925       0.000
   20 H                 0.925       0.925       0.000
   21 H                 0.927       0.927       0.000
   22 H                 0.927       0.927       0.000
   23 H                 0.927       0.927      -0.000
   24 H                 0.927       0.927      -0.000

          ---------------------
          ELECTROSTATIC MOMENTS
          ---------------------

 POINT   1           X           Y           Z (BOHR)    CHARGE
                 0.000000    0.000000   -0.000000       -0.00 (A.U.)
         DX          DY          DZ         /D/  (DEBYE)
     0.000000    0.000000    0.000000    0.000000
 ...... END OF PROPERTY EVALUATION ......
 STEP CPU TIME =     0.19 TOTAL CPU TIME =      487.9 (    8.1 MIN)
 TOTAL WALL CLOCK TIME=      489.7 SECONDS, CPU UTILIZATION IS  99.63%
  $VIB   
          IVIB=   0 IATOM=   0 ICOORD=   0 E=     -535.9987697902
  0.000000000E+00 7.626853733E-05 0.000000000E+00 0.000000000E+00-7.626851584E-05
  0.000000000E+00 1.222952722E-05 7.012404980E-05 0.000000000E+00-1.222951538E-05
 -7.012406375E-05 0.000000000E+00 1.222953447E-05-7.012415214E-05 0.000000000E+00
 -1.222954560E-05 7.012414111E-05 0.000000000E+00-6.658354011E-05 7.096338421E-05
  0.000000000E+00 6.658354795E-05-7.096338211E-05 0.000000000E+00-2.696440945E-05
  2.486332651E-05 0.000000000E+00 2.696441149E-05-2.486332116E-05 0.000000000E+00
 -2.696437782E-05-2.486334207E-05 0.000000000E+00 2.696437569E-05 2.486334995E-05
  0.000000000E+00 6.658351158E-05 7.096346516E-05 0.000000000E+00-6.658352671E-05
 -7.096347428E-05 0.000000000E+00 1.288927669E-05 3.433811163E-06 0.000000000E+00
 -1.288927310E-05-3.433816568E-06 0.000000000E+00 0.000000000E+00 1.962023885E-05
  0.000000000E+00 0.000000000E+00-1.962023847E-05 0.000000000E+00 1.288927343E-05
 -3.433833779E-06 0.000000000E+00-1.288927728E-05 3.433831081E-06 0.000000000E+00
  2.083383753E-06 2.750618843E-05 0.000000000E+00-2.083388112E-06-2.750618478E-05
  0.000000000E+00 2.083401280E-06-2.750613625E-05 0.000000000E+00-2.083397157E-06
  2.750613948E-05 0.000000000E+00
  1.340483116E-10 7.849924031E-10 2.629788274E-11
 ......END OF GEOMETRY SEARCH......
 STEP CPU TIME =     0.01 TOTAL CPU TIME =      487.9 (    8.1 MIN)
 TOTAL WALL CLOCK TIME=      489.8 SECONDS, CPU UTILIZATION IS  99.63%
              1366557  WORDS OF DYNAMIC MEMORY USED
 EXECUTION OF GAMESS TERMINATED NORMALLY Tue Jan 28 14:11:41 2025
 DDI: 263624 bytes (0.3 MB / 0 MWords) used by master data server.

 ----------------------------------------
 CPU timing information for all processes
 ========================================
 0: 487.821 + 0.127 = 487.949
 ----------------------------------------
 ddikick.x: exited gracefully.
----- accounting info -----
Files used on the master node armilia were:
-rw-r--r-- 1 barrois users    1517 Jan 28 14:03 /scratch/barrois.272347/anthracene_HF.F05
-rw-r--r-- 1 barrois users 5660560 Jan 28 14:11 /scratch/barrois.272347/anthracene_HF.F10
Tue Jan 28 02:11:44 PM CET 2025
0.0u 0.0s 8:12.90 0.0% 0+0k 8+216io 0pf+0w
